{"ref": {"title": "Refractive index and heat capacity of 1-butyl-3-methylimidazolium bromide and 1-butyl-3-methylimidazolium tetrafluoroborate, and vapor pressure of binary systems for 1-butyl-3-methylimidazolium bromide + trifluoroethanol and 1-butyl-3-methylimidazolium tetrafluoroborate + trifluoroethanol", "full": "Kim, K.-S.; Shin, B.-K.; Ziegler, F. (2004) Fluid Phase Equilib. 218(2), 215-220."}, "title": "Heat capacity and derived properties: Heat capacity at constant pressure", "footer": "", "expmeth": "Small sample (50 mg) scanning calorimetry", "solvent": null, "constr": [], "components": [{"name": "1-butyl-3-methylimidazolium bromide", "idout": "AAqHDZ", "sample": [["Source:", "synthesized by the authors"], ["Purity:", "0.03 water mass %(chemical reagent treatment;dried with chemical reagent;dried by vacuum heating)"]], "formula": "C<SUB>8</SUB>H<SUB>15</SUB>BrN<SUB>2</SUB>", "mw": "219.13"}], "data": [[["298.2"], ["101.325"], ["296", "66"]], [["301.2"], ["101.325"], ["305", "66"]], [["303.2"], ["101.325"], ["309", "66"]], [["305.2"], ["101.325"], ["316", "66"]], [["308.2"], ["101.325"], ["322", "66"]], [["310.2"], ["101.325"], ["326", "66"]], [["313.2"], ["101.325"], ["333", "66"]], [["315.2"], ["101.325"], ["337", "66"]], [["318.2"], ["101.325"], ["346", "66"]], [["320.2"], ["101.325"], ["351", "66"]], [["323.2"], ["101.325"], ["359", "66"]]], "phases": ["Liquid"], "dhead": [["Temperature, K", null], ["Pressure, kPa", null], ["Heat capacity at constant pressure, J/K/mol", "Liquid"]]}