{"constr": [], "components": [{"mw": "399.58", "sample": [["Source:", "synthesized by the authors"], ["Purification:", "gas chromatography;fraction melting in an adiabatic calorimeter"], ["Purity:", "99.57 mass %;99.43 mol %(crystallization from solution;fractional crystallization)"]], "idout": "ABYrgC", "name": "4,6-dimethyl-N-phenylpyrimidin-2-amine dodecanoate", "formula": "C<SUB>24</SUB>H<SUB>37</SUB>N<SUB>3</SUB>O<SUB>2</SUB>"}], "phases": ["Liquid"], "dhead": [["Temperature, K", null], ["Pressure, kPa", null], ["Heat capacity at constant pressure, J/K/mol", "Liquid"]], "data": [[["323.462"], ["101.325"], ["830.6", "7"]], [["325.282"], ["101.325"], ["836.8", "7.1"]], [["327.089"], ["101.325"], ["842.2", "7.1"]], [["328.879"], ["101.325"], ["847.9", "7.2"]], [["330.652"], ["101.325"], ["851.3", "7.2"]], [["332.412"], ["101.325"], ["855.6", "7.2"]], [["334.15"], ["101.325"], ["860.2", "7.3"]], [["335.872"], ["101.325"], ["866.7", "7.3"]], [["337.574"], ["101.325"], ["869.3", "7.4"]], [["339.257"], ["101.325"], ["872.9", "7.4"]]], "footer": "", "solvent": null, "expmeth": "Small (less than 1 g) adiabatic calorimetry", "title": "Heat capacity and derived properties: Heat capacity at constant pressure", "ref": {"title": "Heat capacity and enthalpy of fusion of pyrimethanil laurate (C24H37N3O2)", "full": "Sun, X.H.; Liu, Y.F.; Tan, Z.-C.; Di,; Wang, H.-F.; Wang, M.-H. (2004) J. Chem. Thermodyn. 36(10), 895-899."}}