{"data": [[["78.402"], ["101.325"], ["214.6", "2.3"]], [["80.594"], ["101.325"], ["219", "2.4"]], [["82.774"], ["101.325"], ["224", "2.4"]], [["84.912"], ["101.325"], ["229", "2.5"]], [["87.02"], ["101.325"], ["231.1", "2.5"]], [["89.126"], ["101.325"], ["235.4", "2.6"]], [["91.21"], ["101.325"], ["238.6", "2.3"]], [["93.268"], ["101.325"], ["241.2", "2.3"]], [["95.351"], ["101.325"], ["244.4", "2.4"]], [["97.443"], ["101.325"], ["249.1", "2.4"]], [["99.517"], ["101.325"], ["255.6", "2.4"]], [["101.557"], ["101.325"], ["258.5", "2.5"]], [["103.546"], ["101.325"], ["262.9", "2.5"]], [["105.483"], ["101.325"], ["266.3", "2.5"]], [["107.373"], ["101.325"], ["268.9", "2.6"]], [["109.228"], ["101.325"], ["272.4", "2.6"]], [["111.051"], ["101.325"], ["277", "2.6"]], [["112.844"], ["101.325"], ["280.4", "2.6"]], [["114.617"], ["101.325"], ["283.7", "2.7"]], [["116.367"], ["101.325"], ["286.2", "2.7"]], [["118.099"], ["101.325"], ["289.8", "2.7"]], [["119.809"], ["101.325"], ["291.8", "2.7"]], [["121.504"], ["101.325"], ["295.3", "2.8"]], [["123.181"], ["101.325"], ["299.1", "2.8"]], [["124.846"], ["101.325"], ["302.4", "2.8"]], [["126.497"], ["101.325"], ["305.3", "2.8"]], [["128.13"], ["101.325"], ["309.3", "2.9"]], [["129.753"], ["101.325"], ["313.5", "2.9"]], [["131.36"], ["101.325"], ["316.7", "2.9"]], [["133.506"], ["101.325"], ["320.9", "3"]], [["136.037"], ["101.325"], ["325.4", "3"]], [["138.469"], ["101.325"], ["328.4", "3"]], [["140.851"], ["101.325"], ["332.7", "3.1"]], [["143.199"], ["101.325"], ["334.9", "3.1"]], [["145.519"], ["101.325"], ["336.6", "3.1"]], [["147.817"], ["101.325"], ["338.1", "3.1"]], [["150.087"], ["101.325"], ["340.6", "3.1"]], [["152.338"], ["101.325"], ["342.8", "3.1"]], [["154.568"], ["101.325"], ["344.3", "3.2"]], [["156.779"], ["101.325"], ["346.5", "3.2"]], [["158.978"], ["101.325"], ["347.9", "3.2"]], [["161.158"], ["101.325"], ["351.4", "3.2"]], [["163.312"], ["101.325"], ["355.1", "3.2"]], [["165.46"], ["101.325"], ["356.7", "3.3"]], [["167.591"], ["101.325"], ["360.2", "3.3"]], [["169.71"], ["101.325"], ["363.7", "3.3"]], [["171.815"], ["101.325"], ["365.9", "3.3"]], [["173.908"], ["101.325"], ["368.2", "3.3"]], [["175.989"], ["101.325"], ["370.2", "3.4"]], [["178.061"], ["101.325"], ["374.9", "3.4"]], [["180.105"], ["101.325"], ["378.8", "3.4"]], [["182.135"], ["101.325"], ["381.3", "3.5"]], [["184.155"], ["101.325"], ["384.9", "3.5"]], [["186.153"], ["101.325"], ["387.4", "3.5"]], [["188.138"], ["101.325"], ["391.9", "3.5"]], [["190.109"], ["101.325"], ["393.7", "3.6"]], [["192.064"], ["101.325"], ["396.4", "3.6"]], [["194.009"], ["101.325"], ["400.4", "3.6"]], [["195.939"], ["101.325"], ["403.8", "3.6"]], [["197.862"], ["101.325"], ["406.8", "3.7"]], [["199.773"], ["101.325"], ["410.8", "3.7"]], [["201.683"], ["101.325"], ["414.7", "3.7"]], [["203.584"], ["101.325"], ["416", "3.7"]], [["205.489"], ["101.325"], ["418.7", "3.7"]], [["207.387"], ["101.325"], ["423.8", "3.8"]], [["209.269"], ["101.325"], ["427.3", "3.8"]], [["213.631"], ["101.325"], ["430.9", "3.8"]], [["215.481"], ["101.325"], ["433.7", "3.9"]], [["217.331"], ["101.325"], ["437.2", "3.9"]], [["219.163"], ["101.325"], ["440.3", "3.9"]], [["220.991"], ["101.325"], ["444.6", "4"]], [["222.806"], ["101.325"], ["447.1", "4"]], [["224.609"], ["101.325"], ["450.7", "4"]], [["226.397"], ["101.325"], ["454.2", "4"]], [["228.168"], ["101.325"], ["457.4", "4.1"]], [["229.915"], ["101.325"], ["461.6", "4.1"]], [["231.659"], ["101.325"], ["464.3", "4.1"]], [["233.448"], ["101.325"], ["469", "4.1"]], [["235.258"], ["101.325"], ["472.3", "4.2"]], [["237.065"], ["101.325"], ["476", "4.2"]], [["238.858"], ["101.325"], ["479.3", "4.2"]], [["240.619"], ["101.325"], ["485.9", "4.3"]], [["242.331"], ["101.325"], ["489.5", "4.3"]], [["244.029"], ["101.325"], ["494.4", "4.4"]], [["245.761"], ["101.325"], ["499.3", "4.4"]], [["248.096"], ["101.325"], ["502", "4.4"]], [["250.994"], ["101.325"], ["505.3", "4.4"]], [["253.795"], ["101.325"], ["510", "4.5"]], [["256.525"], ["101.325"], ["514.4", "4.5"]], [["259.211"], ["101.325"], ["517.6", "4.5"]], [["261.873"], ["101.325"], ["521.4", "4.6"]], [["264.512"], ["101.325"], ["524.1", "4.6"]], [["267.132"], ["101.325"], ["529.6", "4.6"]], [["269.725"], ["101.325"], ["533.7", "4.7"]], [["272.295"], ["101.325"], ["537.7", "4.7"]], [["274.788"], ["101.325"], ["541.4", "4.7"]], [["277.25"], ["101.325"], ["545", "4.8"]], [["279.668"], ["101.325"], ["550", "4.8"]], [["282.044"], ["101.325"], ["554", "4.8"]], [["284.355"], ["101.325"], ["557", "4.9"]], [["286.643"], ["101.325"], ["560.1", "4.9"]], [["288.902"], ["101.325"], ["564.8", "4.9"]], [["291.095"], ["101.325"], ["568.5", "4.9"]], [["293.226"], ["101.325"], ["573.3", "5"]], [["295.4"], ["101.325"], ["577.7", "5"]], [["297.595"], ["101.325"], ["582.6", "5.1"]], [["299.782"], ["101.325"], ["586.5", "5.1"]], [["301.949"], ["101.325"], ["590.4", "5.1"]], [["304.046"], ["101.325"], ["595.8", "5.2"]], [["306.132"], ["101.325"], ["598.6", "5.2"]], [["308.199"], ["101.325"], ["604.1", "5.2"]]], "dhead": [["Temperature, K", null], ["Pressure, kPa", null], ["Heat capacity at constant pressure, J/K/mol", "Crystal"]], "phases": ["Crystal"], "components": [{"mw": "399.58", "formula": "C<SUB>24</SUB>H<SUB>37</SUB>N<SUB>3</SUB>O<SUB>2</SUB>", "idout": "ABYrgC", "sample": [["Source:", "synthesized by the authors"], ["Purification:", "gas chromatography;fraction melting in an adiabatic calorimeter"], ["Purity:", "99.57 mass %;99.43 mol %(crystallization from solution;fractional crystallization)"]], "name": "4,6-dimethyl-N-phenylpyrimidin-2-amine dodecanoate"}], "constr": [], "title": "Heat capacity and derived properties: Heat capacity at constant pressure", "ref": {"full": "Sun, X.H.; Liu, Y.F.; Tan, Z.-C.; Di,; Wang, H.-F.; Wang, M.-H. (2004) J. Chem. Thermodyn. 36(10), 895-899.", "title": "Heat capacity and enthalpy of fusion of pyrimethanil laurate (C24H37N3O2)"}, "solvent": null, "expmeth": "Small (less than 1 g) adiabatic calorimetry", "footer": ""}