{"data": [[["385.1", "1"]]], "phases": ["Crystal", "Liquid"], "dhead": [["Normal melting temperature, K"]], "constr": ["Pressure of 1 atm"], "components": [{"formula": "F<SUB>2</SUB>Ge", "name": "difluorogermylene", "idout": "AAVOlv", "sample": [["Source:", "synthesized by the authors"], ["Purification:", "DSC"], ["Purity:", "99.8 mol %"]], "mw": "110.63"}], "title": "Phase transition properties: Normal melting temperature", "ref": {"title": "The Enthalpy of Formation of Germanium Difluoride", "full": "Adams, G. P.; Margrave, J. L.; Wilson, P. W. (1970) J. Chem. Thermodyn. 2(5), 741-744."}, "footer": "", "expmeth": "DSC/DTA", "solvent": null}