{"ref": {"title": "The properties of molten carboxylates: Part 7. Odd-even variations in melting and mesophase formation in the lead(II) carboxylates", "full": "Adeosun, S. O.; Sime, S. J. (1978) Thermochim. Acta 27(1-3), 319-327."}, "title": "Phase transition properties: Normal melting temperature", "footer": "", "expmeth": "", "solvent": null, "data": [[["374.7", "0.1"]]], "phases": ["Crystal 1", "Liquid"], "dhead": [["Normal melting temperature, K"]], "constr": ["Pressure of 1 atm"], "components": [{"mw": "465.56", "formula": "C<SUB>14</SUB>H<SUB>26</SUB>O<SUB>4</SUB>Pb", "name": "lead(2+) diheptanoate", "idout": "ABlbZp", "sample": [["Source:", "synthesized by the authors"], ["Purity analysis:", "chemical reagent treatment;crystallization from solution"]]}]}