{"data": [[["323.7", "0.5"]]], "phases": ["Crystal", "Liquid"], "dhead": [["Normal melting temperature, K"]], "components": [{"name": "1-butyl-3-methylpyridinium 4-methylbenzenesulfonate", "sample": [["Source:", "commercial source"], ["Initial purification:", "stated by supplier"], ["Initial purity:", "98 mass %"], ["Final purification:", "Karl Fischer titration"], ["Final purity:", "0.026 water mass %(de-gassed by evacuation)"]], "idout": "ABJqgE", "formula": "C<SUB>17</SUB>H<SUB>23</SUB>NO<SUB>3</SUB>S", "mw": "321.44"}], "constr": ["Pressure of 1 atm"], "title": "Phase transition properties: Normal melting temperature", "ref": {"full": "Domanska, U.; Krolikowski, M.; Slesinska, K. (2009) J. Chem. Thermodyn. 41(11), 1303-1311.", "title": "Phase equilibria study of the binary systems (ionic liquid + thiophene):  Desulphurization process"}, "footer": "", "expmeth": "DSC/DTA", "solvent": null}