{"constr": ["Pressure of 1 atm"], "components": [{"mw": "399.38", "name": "triethylsulfonium bis((trifluoromethyl)sulfonyl)imide", "sample": [["Source:", "commercial source"], ["Initial purification:", "estimated by the compiler"], ["Initial purity:", "99 % (basis not specified)"], ["Final purification:", "Karl Fischer titration"], ["Final purity:", "0.026 water mass %(de-gassed by evacuation)"]], "idout": "ABYpfA", "formula": "C<SUB>8</SUB>H<SUB>15</SUB>F<SUB>6</SUB>NO<SUB>4</SUB>S<SUB>3</SUB>"}], "dhead": [["Normal melting temperature, K"]], "phases": ["Crystal 1", "Liquid"], "data": [[["262.8", "0.5"]]], "solvent": null, "expmeth": "DSC/DTA", "footer": "", "title": "Phase transition properties: Normal melting temperature", "ref": {"title": "Phase equilibria study of the binary systems (ionic liquid + thiophene):  Desulphurization process", "full": "Domanska, U.; Krolikowski, M.; Slesinska, K. (2009) J. Chem. Thermodyn. 41(11), 1303-1311."}}