{"footer": "", "solvent": null, "expmeth": "DSC/DTA", "ref": {"full": "Domanska, U.; Krolikowski, M.; Ramjugernath, D.; Letcher, T. M.; Tumba, K. (2010) J. Phys. Chem. B 114, 15011-15017.", "title": "Phase Equilibria and Modeling of Pyridinium-Based Ionic Liquid Solutions"}, "title": "Phase transition properties: Normal melting temperature", "constr": ["Pressure of 1 atm"], "components": [{"name": "1-butyl-4-methylpyridinium bis((trifluoromethyl)sulfonyl)amide", "sample": [["Source:", "commercial source"], ["Initial purification:", "stated by supplier"], ["Initial purity:", "99 mass %"], ["Final purification:", "Karl Fischer titration"], ["Final purity:", "0.026 water mass %(de-gassed by evacuation)"]], "idout": "ABenwV", "formula": "C<SUB>12</SUB>H<SUB>16</SUB>F<SUB>6</SUB>N<SUB>2</SUB>O<SUB>4</SUB>S<SUB>2</SUB>", "mw": "430.38"}], "phases": ["Crystal 1", "Liquid"], "dhead": [["Normal melting temperature, K"]], "data": [[["291.4", "1.1"]]]}