{"footer": "", "expmeth": "DSC/DTA", "solvent": null, "ref": {"full": "Domanska, U.; Krolikowska, M.; Paduszynski, K. (2011) Fluid Phase Equilib. 303(1), 1-9.", "title": "Physico-chemical properties and phase behaviour of piperidinium-based ionic liquids"}, "title": "Phase transition properties: Normal melting temperature", "constr": ["Pressure of 1 atm"], "components": [{"mw": "408.37", "idout": "ABabqJ", "sample": [["Source:", "commercial source"], ["Initial purification:", "stated by supplier"], ["Initial purity:", "99 mass %"], ["Final purification:", "Karl Fischer titration"], ["Final purity:", "0.026 water mass %(dried by vacuum heating)"]], "name": "1-ethyl-1-methylpiperidinium bis(trifluoromethylsulfonyl)imide", "formula": "C<SUB>10</SUB>H<SUB>18</SUB>F<SUB>6</SUB>N<SUB>2</SUB>O<SUB>4</SUB>S<SUB>2</SUB>"}], "phases": ["Crystal 1", "Liquid"], "dhead": [["Normal melting temperature, K"]], "data": [[["358.04", "0.5"]]]}