{"title": "Phase transition properties: Normal melting temperature", "ref": {"title": "Phase equilibria study of binary systems comprising an (ionic liquid + hydrocarbon)", "full": "Domanska, U.; Roguszewska, M.; Krolikowski, M.; Ramjugernath, D.; Naidoo, P. (2015) J. Chem. Thermodyn. 83, 90-96."}, "solvent": null, "expmeth": "Visual observation", "footer": "", "constr": ["Pressure of 1 atm"], "components": [{"mw": "277.30", "sample": [["Source:", "commercial source"], ["Initial purification:", "stated by supplier"], ["Initial purity:", "99 mass %"], ["Final purification:", "Karl Fischer titration;DSC"], ["Final purity:", "0.025 water mass %;99 mass %(dried by vacuum heating)"]], "idout": "ABBRMV", "name": "1-methyl-1-propylpyrrolidinium triflate", "formula": "C<SUB>9</SUB>H<SUB>18</SUB>F<SUB>3</SUB>NO<SUB>3</SUB>S"}], "data": [[["350.7", "0.5"]]], "dhead": [["Normal melting temperature, K"]], "phases": ["Crystal 1", "Liquid"]}