{"ref": {"full": "Domanska, U.; Krolikowski, M.; Zawadzki, M.; Wroblewska, A. (2016) J. Chem. Thermodyn. 102, 357-366.", "title": "Phase equilibrium investigation with ionic liquids and selectivity in separation of 2-phenylethanol from water"}, "title": "Phase transition properties: Normal melting temperature", "footer": "", "expmeth": "DSC/DTA", "solvent": null, "data": [[["256.4", "0.4"]]], "phases": ["Crystal 1", "Liquid"], "dhead": [["Normal melting temperature, K"]], "components": [{"formula": "C<SUB>7</SUB>H<SUB>13</SUB>F<SUB>6</SUB>NO<SUB>4</SUB>S<SUB>3</SUB>", "sample": [["Source:", "commercial source"], ["Initial purification:", "stated by supplier"], ["Initial purity:", "97 mass %"], ["Final purification:", "Karl Fischer titration"], ["Final purity:", "0.0361 water mass %(dried by vacuum heating)"]], "idout": "ABWFVX", "name": "diethylmethylsulfonium bis[(trifluoromethyl)sulfonyl]imide", "mw": "385.35"}], "constr": ["Pressure of 1 atm"]}