{"expmeth": "DSC/DTA", "solvent": null, "footer": "", "title": "Phase transition properties: Normal melting temperature", "ref": {"title": "Phase equilibrium in binary systems of ionic liquids, or deep eutectic solvents with 2-phenylethanol (PEA), or water", "full": "Domanska, U.; Okuniewska, P.; Markowska, A. (2016) Fluid Phase Equilib. 424, 68-78."}, "dhead": [["Normal melting temperature, K"]], "phases": ["Crystal", "Liquid"], "data": [[["292.8", "0.4"]]], "components": [{"mw": "257.15", "formula": "C<SUB>13</SUB>H<SUB>20</SUB>BN<SUB>5</SUB>", "idout": "AAxXOk", "sample": [["Source:", "synthesized by the authors"], ["Initial purification:", "stated by supplier"], ["Initial purity:", "98 mass %"], ["Final purification:", "Karl Fischer titration"], ["Final purity:", "0.04362 water mass %"]], "name": "1-butyl-1-methylpyrrolidinium tetracyanoborate"}], "constr": ["Pressure of 1 atm"]}