{"footer": "", "expmeth": "DSC/DTA", "solvent": null, "ref": {"title": "Phase equilibrium in binary systems of ionic liquids, or deep eutectic solvents with 2-phenylethanol (PEA), or water", "full": "Domanska, U.; Okuniewska, P.; Markowska, A. (2016) Fluid Phase Equilib. 424, 68-78."}, "title": "Phase transition properties: Normal melting temperature", "phases": ["Crystal", "Liquid"], "dhead": [["Normal melting temperature, K"]], "data": [[["272.9", "0.4"]]], "components": [{"name": "1-butyl-1-methylpyrrolidinium trifluoromethanesulfonate", "idout": "ABEBJM", "sample": [["Source:", "synthesized by the authors"], ["Initial purification:", "stated by supplier"], ["Initial purity:", "97 mass %"], ["Final purification:", "Karl Fischer titration"], ["Final purity:", "0.04934 water mass %"]], "formula": "C<SUB>10</SUB>H<SUB>20</SUB>F<SUB>3</SUB>NO<SUB>3</SUB>S", "mw": "291.33"}], "constr": ["Pressure of 1 atm"]}