{"constr": ["Pressure of 1 atm"], "components": [{"formula": "C<SUB>2</SUB>H<SUB>8</SUB>N<SUB>2</SUB>O<SUB>3</SUB>", "sample": [], "idout": "AAUodx", "name": "ethylammonium nitrate", "mw": "108.10"}], "phases": ["Crystal", "Liquid"], "dhead": [["Normal melting temperature, K"]], "data": [[["285.1", "1"]]], "footer": "", "expmeth": "Visual observation", "solvent": null, "title": "Phase transition properties: Normal melting temperature", "ref": {"title": "Thermodynamic properties of the ethylammonium nitrate + water system partial molar volumes, heat capacities, and expansivities", "full": "Allen, M.; Evans, D. F.; Lumry, R. (1985) J. Solution Chem. 14, 549-60."}}