{"title": "Phase transition properties: Normal melting temperature", "ref": {"title": "Phase behaviour of 1-butyl-1-methylpyrrolidinium thiocyanate ionic liquid", "full": "Domanska-Zelazna, U.; Krolikowska, M. (2011) Fluid Phase Equilib. 308(1-2), 55-63."}, "expmeth": "DSC/DTA", "solvent": null, "footer": "", "constr": ["Pressure of 1 atm"], "components": [{"formula": "C<SUB>10</SUB>H<SUB>20</SUB>N<SUB>2</SUB>S", "name": "1-butyl-1-methylpyrrolidinium thiocyanate", "sample": [["Source:", "commercial source"], ["Initial purification:", "stated by supplier"], ["Initial purity:", "98 mass %"], ["Final purification:", "Karl Fischer titration"], ["Final purity:", "0.042 water mass %(dried by vacuum heating)"]], "idout": "AAmbEz", "mw": "200.34"}], "data": [[["295.4", "0.9"]]], "dhead": [["Normal melting temperature, K"]], "phases": ["Crystal 1", "Liquid"]}