{"footer": "", "solvent": null, "expmeth": "Visual observation", "ref": {"title": "Synthesis of water-soluble cellulose esters applying carboxylic acid imidazolides", "full": "Dorn, S.; Pfeifer, A.; Schlufter, K.; Heinze, T. (2010) Polym. Bull. 64, 845-854."}, "title": "Phase transition properties: Normal melting temperature", "phases": ["Crystal", "Liquid"], "dhead": [["Normal melting temperature, K"]], "data": [[["325.1", "1"]]], "constr": ["Pressure of 1 atm"], "components": [{"formula": "C<SUB>7</SUB>H<SUB>11</SUB>ClN<SUB>2</SUB>", "sample": [["Source:", "commercial source"], ["Purification:", "estimated by the compiler"], ["Purity:", "97 mass %(none used)"]], "idout": "AAeagW", "name": "1-allyl-3-methylimidazolium chloride", "mw": "158.63"}]}