{"data": [[["353.1", "4"]]], "phases": ["Crystal", "Liquid"], "dhead": [["Normal melting temperature, K"]], "constr": ["Pressure of 1 atm"], "components": [{"name": "1-ethyl-3-methylimidazolium chloride", "idout": "AAcKJZ", "sample": [["Source:", "commercial source"], ["Purification:", "estimated by the compiler"], ["Purity:", "97 mass %(none used)"]], "formula": "C<SUB>6</SUB>H<SUB>11</SUB>ClN<SUB>2</SUB>", "mw": "146.62"}], "ref": {"full": "Dorn, S.; Pfeifer, A.; Schlufter, K.; Heinze, T. (2010) Polym. Bull. 64, 845-854.", "title": "Synthesis of water-soluble cellulose esters applying carboxylic acid imidazolides"}, "title": "Phase transition properties: Normal melting temperature", "footer": "", "expmeth": "Visual observation", "solvent": null}