{"expmeth": "DSC/DTA", "solvent": null, "footer": "", "title": "Phase transition properties: Normal melting temperature", "ref": {"full": "Drake, G. W.; Hawkins, T. W.; Boatz, J.; Hall, L.; Vij, A. (2005) Propellants Explos. Pyrotech. 30(2), 156-163.", "title": "Experimental and Theoretical Study of 1,5-Diamino-4-H-1,2,3,4-Tetrazolium Perchlorate"}, "constr": ["Pressure of 1 atm"], "components": [{"mw": "200.54", "formula": "CH<SUB>5</SUB>ClN<SUB>6</SUB>O<SUB>4</SUB>", "name": "1,5-diamino-4H-1,2,3,4-tetrazolium perchlorate", "sample": [["Source:", "synthesized by the authors"], ["Purity analysis:", "crystallization from melt;purification method described elsewhere"]], "idout": "AAmdkN"}], "dhead": [["Normal melting temperature, K"]], "phases": ["Crystal", "Liquid"], "data": [[["401.1", "9"]]]}