{"constr": ["Pressure of 1 atm"], "components": [{"formula": "C<SUB>11</SUB>H<SUB>17</SUB>F<SUB>6</SUB>N<SUB>3</SUB>O<SUB>4</SUB>S<SUB>2</SUB>", "idout": "ABfRlQ", "sample": [["Source:", "synthesized by the authors"], ["Purification:", "estimated by the compiler"], ["Purity:", "98 mass %(dried by vacuum heating)"]], "name": "1-methyl-3-pentylimidazolium bis(trifluoromethylsulfonyl)imide", "mw": "433.38"}], "dhead": [["Normal melting temperature, K"]], "phases": ["Crystal", "Liquid"], "data": [[["264.1", "4"]]], "expmeth": "DSC/DTA", "solvent": null, "footer": "", "title": "Phase transition properties: Normal melting temperature", "ref": {"full": "Dzyuba, S. V.; Bartsch, R. A. (2002) ChemPhysChem 3, 161-166.", "title": "Influence of Structural Variations in 1-Alkyl(aralkyl)-3-Methylimidazolium Hexafluorophosphates and Bis(trifluromethylsulfonyl)imides on Physical Properties of the Ionic Liquids"}}