{"components": [{"mw": "481.43", "idout": "ABoeUi", "sample": [["Source:", "synthesized by the authors"], ["Purification:", "chemical analysis"], ["Purity:", "99 mass %(dried by vacuum heating)"]], "name": "1-methyl-3-(3-phenylpropyl)-1H-imidazolium 1,1,1-trifluoro-N-[(trifluoromethyl)sulfonyl]methanesulfonamide", "formula": "C<SUB>15</SUB>H<SUB>17</SUB>F<SUB>6</SUB>N<SUB>3</SUB>O<SUB>4</SUB>S<SUB>2</SUB>"}], "constr": ["Pressure of 1 atm"], "phases": ["Crystal", "Liquid"], "dhead": [["Normal melting temperature, K"]], "data": [[["321.1", "4"]]], "footer": "", "expmeth": "DSC/DTA", "solvent": null, "ref": {"full": "Dzyuba, S. V.; Bartsch, R. A. (2002) ChemPhysChem 3, 161-166.", "title": "Influence of Structural Variations in 1-Alkyl(aralkyl)-3-Methylimidazolium Hexafluorophosphates and Bis(trifluromethylsulfonyl)imides on Physical Properties of the Ionic Liquids"}, "title": "Phase transition properties: Normal melting temperature"}