{"footer": "", "solvent": null, "expmeth": "DSC/DTA", "ref": {"full": "Dzyuba, S. V.; Bartsch, R. A. (2002) ChemPhysChem 3, 161-166.", "title": "Influence of Structural Variations in 1-Alkyl(aralkyl)-3-Methylimidazolium Hexafluorophosphates and Bis(trifluromethylsulfonyl)imides on Physical Properties of the Ionic Liquids"}, "title": "Phase transition properties: Normal melting temperature", "phases": ["Crystal", "Liquid"], "dhead": [["Normal melting temperature, K"]], "data": [[["331.1", "4"]]], "components": [{"mw": "256.13", "formula": "C<SUB>6</SUB>H<SUB>11</SUB>F<SUB>6</SUB>N<SUB>2</SUB>P", "name": "1-ethyl-3-methylimidazolium hexafluorophosphate", "sample": [["Source:", "synthesized by the authors"], ["Purification:", "estimated by the compiler"], ["Purity:", "98 mass %(dried by vacuum heating)"]], "idout": "AAxNWt"}], "constr": ["Pressure of 1 atm"]}