{"constr": ["Pressure of 1 atm"], "components": [{"sample": [["Source:", "synthesized by the authors"], ["Purification:", "chemical analysis"], ["Purity:", "98 mass %(dried by vacuum heating)"]], "idout": "ABkmdZ", "name": "1-heptyl-3-methylimidazolium bis(trifluoromethylsulfonyl)amide", "formula": "C<SUB>13</SUB>H<SUB>21</SUB>F<SUB>6</SUB>N<SUB>3</SUB>O<SUB>4</SUB>S<SUB>2</SUB>", "mw": "461.44"}], "data": [[["280.1", "4"]]], "phases": ["Crystal", "Liquid"], "dhead": [["Normal melting temperature, K"]], "ref": {"full": "Dzyuba, S. V.; Bartsch, R. A. (2002) ChemPhysChem 3, 161-166.", "title": "Influence of Structural Variations in 1-Alkyl(aralkyl)-3-Methylimidazolium Hexafluorophosphates and Bis(trifluromethylsulfonyl)imides on Physical Properties of the Ionic Liquids"}, "title": "Phase transition properties: Normal melting temperature", "footer": "", "solvent": null, "expmeth": "DSC/DTA"}