{"footer": "", "solvent": null, "expmeth": "DSC/DTA", "ref": {"title": "Influence of Structural Variations in 1-Alkyl(aralkyl)-3-Methylimidazolium Hexafluorophosphates and Bis(trifluromethylsulfonyl)imides on Physical Properties of the Ionic Liquids", "full": "Dzyuba, S. V.; Bartsch, R. A. (2002) ChemPhysChem 3, 161-166."}, "title": "Phase transition properties: Normal melting temperature", "components": [{"formula": "C<SUB>11</SUB>H<SUB>13</SUB>F<SUB>6</SUB>N<SUB>2</SUB>P", "name": "1-benzyl-3-methylimidazolium hexafluorophosphate", "idout": "ABJKwo", "sample": [["Source:", "synthesized by the authors"], ["Purification:", "chemical analysis"], ["Purity:", "95 mass %(dried by vacuum heating)"]], "mw": "318.20"}], "constr": ["Pressure of 1 atm"], "phases": ["Crystal", "Liquid"], "dhead": [["Normal melting temperature, K"]], "data": [[["403.1", "4"]]]}