{"dhead": [["Normal melting temperature, K"]], "phases": ["Crystal 4", "Liquid"], "data": [[["252.2", "4"]]], "constr": ["Pressure of 1 atm"], "components": [{"mw": "391.30", "name": "1-ethyl-3-methylimidazolium bis[(trifluoromethyl)sulfonyl]imide", "sample": [["Source:", "synthesized by the authors"], ["Purification:", "estimated by the compiler"], ["Purity:", "98 mass %(dried by vacuum heating)"]], "idout": "ABXNPV", "formula": "C<SUB>8</SUB>H<SUB>11</SUB>F<SUB>6</SUB>N<SUB>3</SUB>O<SUB>4</SUB>S<SUB>2</SUB>"}], "solvent": null, "expmeth": "DSC/DTA", "footer": "", "ref": {"title": "Influence of Structural Variations in 1-Alkyl(aralkyl)-3-Methylimidazolium Hexafluorophosphates and Bis(trifluromethylsulfonyl)imides on Physical Properties of the Ionic Liquids", "full": "Dzyuba, S. V.; Bartsch, R. A. (2002) ChemPhysChem 3, 161-166."}, "title": "Phase transition properties: Normal melting temperature"}