{"data": [[["351.1", "2"]]], "phases": ["Crystal", "Liquid"], "dhead": [["Normal melting temperature, K"]], "components": [{"formula": "C<SUB>8</SUB>H<SUB>15</SUB>BrN<SUB>2</SUB>", "idout": "AAqHDZ", "sample": [["Source:", "commercial source"], ["Initial purification:", "stated by supplier"], ["Initial purity:", "99 mass %"], ["Final purification:", "Karl Fischer titration"], ["Final purity:", "0.5 water mass %(dried by vacuum heating)"]], "name": "1-butyl-3-methylimidazolium bromide", "mw": "219.13"}], "constr": ["Pressure of 1 atm"], "ref": {"title": "Thermal Stability and Crystallization Behavior of Imidazolium Halide Ionic Liquids", "full": "Efimova, A.; Hubrig, G.; Schmidt, P. (2013) Thermochim. Acta 573, 162-9."}, "title": "Phase transition properties: Normal melting temperature", "footer": "", "solvent": null, "expmeth": "DSC/DTA"}