{"solvent": null, "expmeth": "DSC/DTA", "footer": "", "ref": {"full": "Emel'yanenko, V. N.; Verevkin, S. P.; Heintz, A.; Voss, K.; Schulz, A. (2009) J. Phys. Chem. B 113, 9871-9876.", "title": "Imidazolium-Based Ionic Liquids. 1-Methyl Imidazolium Nitrate: Thermochemical  Measurements and Ab Initio Calculations"}, "title": "Phase transition properties: Normal melting temperature", "dhead": [["Normal melting temperature, K"]], "phases": ["Crystal", "Liquid"], "data": [[["343.6", "2"]]], "constr": ["Pressure of 1 atm"], "components": [{"mw": "145.12", "sample": [["Source:", "commercial source"], ["Purification:", "Karl Fischer titration"], ["Purity:", "0.15157 water mass %(de-gassed by evacuation)"]], "idout": "AAbvUF", "name": "1-methylimidazolium nitrate", "formula": "C<SUB>4</SUB>H<SUB>7</SUB>N<SUB>3</SUB>O<SUB>3</SUB>"}]}