{"title": "Phase transition properties: Normal melting temperature", "ref": {"full": "Every, H. A.; Bishop, A. G.; MacFarlane, D. R.; Oradd, G.; Forsyth, M. (2001) J. Mater. Chem. 11, 3031-3036.", "title": "Room temperature fast-ion conduction in imidazolium halide salts"}, "expmeth": "DSC/DTA", "solvent": null, "footer": "", "data": [[["351", "2"]]], "dhead": [["Normal melting temperature, K"]], "phases": ["Crystal 1", "Liquid"], "constr": ["Pressure of 1 atm"], "components": [{"formula": "C<SUB>6</SUB>H<SUB>11</SUB>IN<SUB>2</SUB>", "sample": [["Source:", "synthesized by the authors"], ["Purity analysis:", "de-gassed by evacuation"]], "idout": "AAtoSj", "name": "1-ethyl-3-methylimidazolium iodide", "mw": "238.07"}]}