{"constr": ["Pressure of 1 atm"], "components": [{"sample": [["Source:", "synthesized by the authors"], ["Purity analysis:", "dried by vacuum heating"]], "idout": "ABXORI", "name": "3-(2-azido-3-(1-methyl-1H-imidazol-3-ium-3-yl)propyl)-1-vinyl-1H-imidazol-3-ium di(dicyanamide)", "formula": "C<SUB>16</SUB>H<SUB>17</SUB>N<SUB>13</SUB>", "mw": "391.40"}], "dhead": [["Normal melting temperature, K"]], "phases": ["Crystal", "Liquid"], "data": [[["292", "1"]]], "expmeth": "DSC/DTA", "solvent": null, "footer": "", "ref": {"title": "Synthesis and thermophysical characterization of novel azide functionalized imidazolium based ionic liquids", "full": "Fareghi-Alamdari, R.; Hatefipour, R. (2015) Thermochim. Acta 617, 172-178."}, "title": "Phase transition properties: Normal melting temperature"}