{"phases": ["Crystal", "Liquid"], "dhead": [["Normal melting temperature, K"]], "data": [[["290", "1"]]], "components": [{"formula": "C<SUB>7</SUB>H<SUB>11</SUB>Br<SUB>2</SUB>N<SUB>5</SUB>", "name": "1-(3-azido-2-bromopropyl)-3-methyl-3H-imidazol-1-ium bromide", "sample": [["Source:", "synthesized by the authors"], ["Purity analysis:", "dried by vacuum heating;solvent extraction"]], "idout": "ABKacs", "mw": "325.01"}], "constr": ["Pressure of 1 atm"], "footer": "", "expmeth": "DSC/DTA", "solvent": null, "title": "Phase transition properties: Normal melting temperature", "ref": {"title": "Synthesis and thermophysical characterization of novel azide functionalized imidazolium based ionic liquids", "full": "Fareghi-Alamdari, R.; Hatefipour, R. (2015) Thermochim. Acta 617, 172-178."}}