{"expmeth": "DSC/DTA", "solvent": null, "footer": "", "ref": {"full": "Fareghi-Alamdari, R.; Hatefipour, R. (2015) Thermochim. Acta 617, 172-178.", "title": "Synthesis and thermophysical characterization of novel azide functionalized imidazolium based ionic liquids"}, "title": "Phase transition properties: Normal melting temperature", "components": [{"formula": "C<SUB>12</SUB>H<SUB>17</SUB>Br<SUB>2</SUB>N<SUB>7</SUB>", "name": "3-(2-azido-3-(1-methyl-1H-imidazol-3-ium-3-yl)propyl)-1-vinyl-1H-imidazol-3-ium dibromide", "idout": "ABcfOX", "sample": [["Source:", "synthesized by the authors"], ["Purity analysis:", "dried by vacuum heating;solvent extraction"]], "mw": "419.12"}], "constr": ["Pressure of 1 atm"], "dhead": [["Normal melting temperature, K"]], "phases": ["Crystal", "Liquid"], "data": [[["296", "1"]]]}