{"footer": "", "expmeth": "DSC/DTA", "solvent": null, "title": "Phase transition properties: Normal melting temperature", "ref": {"title": "Synthesis and thermophysical characterization of novel azide functionalized imidazolium based ionic liquids", "full": "Fareghi-Alamdari, R.; Hatefipour, R. (2015) Thermochim. Acta 617, 172-178."}, "phases": ["Crystal", "Liquid"], "dhead": [["Normal melting temperature, K"]], "data": [[["279", "1"]]], "components": [{"mw": "311.15", "name": "1-(3-azido-2-bromopropyl)-3-methyl-3H-imidazol-1-ium dicyanamide", "idout": "ABHrzc", "sample": [["Source:", "synthesized by the authors"], ["Purity analysis:", "dried by vacuum heating"]], "formula": "C<SUB>9</SUB>H<SUB>11</SUB>BrN<SUB>8</SUB>"}], "constr": ["Pressure of 1 atm"]}