{"ref": {"title": "DSC thermophysics on some lower thallium(I) n-alkanoates", "full": "Fernandez-Martin, F.; Lopez de la Fuente, F. L.; Cheda, J. A. R. (1984) Thermochim. Acta 73(1-2), 109-115."}, "title": "Phase transition properties: Normal melting temperature", "footer": "", "expmeth": "", "solvent": null, "data": [[["390", "1"]]], "phases": ["Crystal 1", "Liquid"], "dhead": [["Normal melting temperature, K"]], "components": [{"name": "palmitic acid, thallium(1+) salt", "sample": [["Source:", "synthesized by the authors"], ["Purity analysis:", "dried by vacuum heating"]], "idout": "ABkWDW", "formula": "C<SUB>16</SUB>H<SUB>31</SUB>O<SUB>2</SUB>Tl", "mw": "459.80"}], "constr": ["Pressure of 1 atm"]}