{"expmeth": "DSC/DTA", "solvent": null, "footer": "", "ref": {"title": "Phase transitions, decomposition temperatures, viscosities and densities of phosphonium, ammonium and imidazolium ionic liquids with aprotic heterocyclic anions", "full": "Fillion, J.; Xia, H.; DeSilva, M. A.; Quiroz-Guzman, M.; Brennecke, J. (2016) J. Chem. Eng. Data 61(8), 2897-2914."}, "title": "Phase transition properties: Normal melting temperature", "dhead": [["Normal melting temperature, K"]], "phases": ["Crystal", "Liquid"], "data": [[["290", "2"]]], "constr": ["Pressure of 1 atm"], "components": [{"mw": "301.37", "formula": "C<SUB>14</SUB>H<SUB>28</SUB>N<SUB>3</SUB>O<SUB>2</SUB>P", "idout": "ABFxCs", "sample": [["Source:", "synthesized by the authors"], ["Purification:", "NMR (proton)"], ["Purity:", "95 % (basis not specified)"]], "name": "butyltriethylphosphonium 2-methyl-5-nitroimidazolide"}]}