{"components": [{"mw": "287.34", "name": "butyltriethylphosphonium 4-nitropyrazolide", "sample": [["Source:", "synthesized by the authors"], ["Purification:", "NMR (proton)"], ["Purity:", "99 % (basis not specified)"]], "idout": "ABDNeS", "formula": "C<SUB>13</SUB>H<SUB>26</SUB>N<SUB>3</SUB>O<SUB>2</SUB>P"}], "constr": ["Pressure of 1 atm"], "phases": ["Crystal", "Liquid"], "dhead": [["Normal melting temperature, K"]], "data": [[["320", "320"]]], "footer": "", "solvent": null, "expmeth": "DSC/DTA", "title": "Phase transition properties: Normal melting temperature", "ref": {"title": "Phase transitions, decomposition temperatures, viscosities and densities of phosphonium, ammonium and imidazolium ionic liquids with aprotic heterocyclic anions", "full": "Fillion, J.; Xia, H.; DeSilva, M. A.; Quiroz-Guzman, M.; Brennecke, J. (2016) J. Chem. Eng. Data 61(8), 2897-2914."}}