{"dhead": [["Normal melting temperature, K"]], "phases": ["Crystal", "Liquid"], "data": [[["278", "2"]]], "constr": ["Pressure of 1 atm"], "components": [{"mw": "343.45", "sample": [["Source:", "synthesized by the authors"], ["Purification:", "NMR (proton)"], ["Purity:", "99 % (basis not specified)"]], "idout": "ABOCdJ", "name": "triethyloctylphosphonium 4-nitropyrazolide", "formula": "C<SUB>17</SUB>H<SUB>34</SUB>N<SUB>3</SUB>O<SUB>2</SUB>P"}], "solvent": null, "expmeth": "DSC/DTA", "footer": "", "title": "Phase transition properties: Normal melting temperature", "ref": {"title": "Phase transitions, decomposition temperatures, viscosities and densities of phosphonium, ammonium and imidazolium ionic liquids with aprotic heterocyclic anions", "full": "Fillion, J.; Xia, H.; DeSilva, M. A.; Quiroz-Guzman, M.; Brennecke, J. (2016) J. Chem. Eng. Data 61(8), 2897-2914."}}