{"title": "Phase transition properties: Normal melting temperature", "ref": {"full": "Appetecchi, G. B.; Montanino, M.; Carewska, M.; Moreno, M.; Alessandrini, F.; Passerini, S. (2011) Electrochim. Acta 56, 1300-1307.", "title": "Chemical physical properties of bis(perfluoroalkylsulfonyl)imide-based ionic liquids"}, "footer": "", "expmeth": "DSC/DTA", "solvent": null, "data": [[["266.6", "1.1"]]], "phases": ["Crystal", "Liquid"], "dhead": [["Normal melting temperature, K"]], "constr": ["Pressure of 1 atm"], "components": [{"name": "1-butyl-1-methylpyrrolidinium bis[(trifluoromethyl)sulfonyl]imide", "idout": "ABdMuP", "sample": [["Source:", "synthesized by the authors"], ["Purification:", "estimated by the compiler"], ["Purity:", "98 mass %"]], "formula": "C<SUB>11</SUB>H<SUB>20</SUB>F<SUB>6</SUB>N<SUB>2</SUB>O<SUB>4</SUB>S<SUB>2</SUB>", "mw": "422.40"}]}