{"footer": "", "expmeth": "DSC/DTA", "solvent": null, "ref": {"title": "Phase transitions, decomposition temperatures, viscosities and densities of phosphonium, ammonium and imidazolium ionic liquids with aprotic heterocyclic anions", "full": "Fillion, J.; Xia, H.; DeSilva, M. A.; Quiroz-Guzman, M.; Brennecke, J. (2016) J. Chem. Eng. Data 61(8), 2897-2914."}, "title": "Phase transition properties: Normal melting temperature", "components": [{"mw": "371.51", "formula": "C<SUB>19</SUB>H<SUB>38</SUB>N<SUB>3</SUB>O<SUB>2</SUB>P", "name": "decyltriethylphosphonium 4-nitropyrazolide", "sample": [["Source:", "synthesized by the authors"], ["Purification:", "NMR (proton)"], ["Purity:", "99 % (basis not specified)"]], "idout": "ABTXRQ"}], "constr": ["Pressure of 1 atm"], "phases": ["Crystal", "Liquid"], "dhead": [["Normal melting temperature, K"]], "data": [[["284", "2"]]]}