{"dhead": [["Normal melting temperature, K"]], "phases": ["Crystal", "Liquid"], "data": [[["263.4", "1.1"]]], "components": [{"name": "1-ethyl-3-methylimidazolium bis[(trifluoromethyl)sulfonyl]imide", "idout": "ABXNPV", "sample": [["Source:", "synthesized by the authors"], ["Purification:", "estimated by the compiler"], ["Purity:", "98 mass %"]], "formula": "C<SUB>8</SUB>H<SUB>11</SUB>F<SUB>6</SUB>N<SUB>3</SUB>O<SUB>4</SUB>S<SUB>2</SUB>", "mw": "391.30"}], "constr": ["Pressure of 1 atm"], "expmeth": "DSC/DTA", "solvent": null, "footer": "", "ref": {"title": "Chemical physical properties of bis(perfluoroalkylsulfonyl)imide-based ionic liquids", "full": "Appetecchi, G. B.; Montanino, M.; Carewska, M.; Moreno, M.; Alessandrini, F.; Passerini, S. (2011) Electrochim. Acta 56, 1300-1307."}, "title": "Phase transition properties: Normal melting temperature"}