{"title": "Phase transition properties: Normal melting temperature", "ref": {"full": "Fillion, J.; Xia, H.; DeSilva, M. A.; Quiroz-Guzman, M.; Brennecke, J. (2016) J. Chem. Eng. Data 61(8), 2897-2914.", "title": "Phase transitions, decomposition temperatures, viscosities and densities of phosphonium, ammonium and imidazolium ionic liquids with aprotic heterocyclic anions"}, "footer": "", "expmeth": "DSC/DTA", "solvent": null, "data": [[["302", "2"]]], "phases": ["Crystal", "Liquid"], "dhead": [["Normal melting temperature, K"]], "constr": ["Pressure of 1 atm"], "components": [{"mw": "275.33", "formula": "C<SUB>12</SUB>H<SUB>26</SUB>N<SUB>3</SUB>O<SUB>2</SUB>P", "name": "triethyl((2-methoxyethoxy)methyl)phosphonium 1,2,3-triazolide", "idout": "ABAxMb", "sample": [["Source:", "synthesized by the authors"], ["Purification:", "NMR (proton)"], ["Purity:", "99 % (basis not specified)"]]}]}