{"components": [{"mw": "268.45", "idout": "AAzgwp", "sample": [["Source:", "synthesized by the authors"], ["Purification:", "NMR (proton)"], ["Purity:", "99 % (basis not specified)"]], "name": "triethylheptylammonium 1,2,3-triazolide", "formula": "C<SUB>15</SUB>H<SUB>32</SUB>N<SUB>4</SUB>"}], "constr": ["Pressure of 1 atm"], "phases": ["Crystal", "Liquid"], "dhead": [["Normal melting temperature, K"]], "data": [[["356", "2"]]], "footer": "", "solvent": null, "expmeth": "DSC/DTA", "ref": {"full": "Fillion, J.; Xia, H.; DeSilva, M. A.; Quiroz-Guzman, M.; Brennecke, J. (2016) J. Chem. Eng. Data 61(8), 2897-2914.", "title": "Phase transitions, decomposition temperatures, viscosities and densities of phosphonium, ammonium and imidazolium ionic liquids with aprotic heterocyclic anions"}, "title": "Phase transition properties: Normal melting temperature"}