{"expmeth": "DSC/DTA", "solvent": null, "footer": "", "title": "Phase transition properties: Normal melting temperature", "ref": {"title": "A study on the thermal decomposition behavior of derivatives of 1,S-diamino-IH-tetrazole (DAT): A new family of energetic heterocyclic-based salts", "full": "Fischer, G.; Holl, G.; Klapotke, T. M.; Weigand, I. J. (2005) Thermochim. Acta 437(1-2), 168-178."}, "dhead": [["Normal melting temperature, K"]], "phases": ["Crystal", "Liquid"], "data": [[["357.1", "6"]]], "constr": ["Pressure of 1 atm"], "components": [{"mw": "221.14", "idout": "AAqbpQ", "sample": [["Source:", "synthesized by the authors"], ["Purification:", "DSC"], ["Purity:", "98 % (basis not specified)"]], "name": "1,5-diamino-4-methyl-1H-tetrazolium dinitramide", "formula": "C<SUB>2</SUB>H<SUB>7</SUB>N<SUB>9</SUB>O<SUB>4</SUB>"}]}