{"components": [{"idout": "AAiXqE", "sample": [["Source:", "synthesized by the authors"], ["Purification:", "DSC"], ["Purity:", "99 % (basis not specified)"]], "name": "1,5-diamino-4-methyl-4,5-dihydro-1H-tetrazol-1-ium nitrate", "formula": "C<SUB>2</SUB>H<SUB>9</SUB>N<SUB>7</SUB>O<SUB>3</SUB>", "mw": "179.14"}], "constr": ["Pressure of 1 atm"], "dhead": [["Normal melting temperature, K"]], "phases": ["Crystal", "Liquid"], "data": [[["394.1", "1"]]], "solvent": null, "expmeth": "DSC/DTA", "footer": "", "ref": {"title": "A study on the thermal decomposition behavior of derivatives of 1,S-diamino-IH-tetrazole (DAT): A new family of energetic heterocyclic-based salts", "full": "Fischer, G.; Holl, G.; Klapotke, T. M.; Weigand, I. J. (2005) Thermochim. Acta 437(1-2), 168-178."}, "title": "Phase transition properties: Normal melting temperature"}