{"footer": "", "expmeth": "Visual observation", "solvent": null, "title": "Phase transition properties: Normal melting temperature", "ref": {"full": "Flaherty, P. H.; Stern, K. H. (1958) J. Am. Chem. Soc. 80(5), 1034-1038.", "title": "Thermodynamics of Ion Pair Dissociation. Tetrabutylammonium Picrate in Chlorobenzene, o- and m-Dichlorobenzene"}, "phases": ["Crystal", "Liquid"], "dhead": [["Normal melting temperature, K"]], "data": [[["362.65", "0.5"]]], "components": [{"name": "1-butanaminium, N.N.N-tributyl-, salt with 2,4,6-trinitrophenol (1:1)", "idout": "ABmZEf", "sample": [["Source:", "synthesized by the authors"], ["Purification:", "estimated by the compiler"], ["Purity:", "98 % (basis not specified)(chemical reagent treatment;crystallization from solution;dried by vacuum heating)"]], "formula": "C<SUB>22</SUB>H<SUB>38</SUB>N<SUB>4</SUB>O<SUB>7</SUB>", "mw": "470.57"}], "constr": ["Pressure of 1 atm"]}