{"components": [{"mw": "587.28", "name": "1-butyl-1-methylpyrrolidinium tris(pentafluoroethyl)trifluorophosphate", "sample": [["Source:", "commercial source"], ["Purification:", "stated by supplier"], ["Initial purity:", "99 % (basis not specified)"], ["Final purity:", "1 water mass %;1 halide impurity mass %"]], "idout": "ACIwvt", "formula": "C<SUB>15</SUB>H<SUB>20</SUB>F<SUB>18</SUB>NP"}], "constr": ["Pressure of 1 atm"], "dhead": [["Normal melting temperature, K"]], "phases": ["Crystal", "Liquid"], "data": [[["277", "2"]]], "solvent": null, "expmeth": "DSC/DTA", "footer": "", "title": "Phase transition properties: Normal melting temperature", "ref": {"title": "Physical Properties of Selected Ionic Liquids for Use as Electrolytes and Other Industrial Applications", "full": "Fletcher, S. I.; Sillars, F. B.; Hudson, N. E.; Hall, P. J. (2010) J. Chem. Eng. Data 55(2), 778-782."}}