{"footer": "", "expmeth": "DSC/DTA", "solvent": null, "title": "Phase transition properties: Normal melting temperature", "ref": {"full": "Fredlake, C. P.; Crosthwaite, J. M.; Hert, D. G.; Aki, S. N. V. K.; Brennecke, J. F. (2004) J. Chem. Eng. Data 49(4), 954-964.", "title": "Thermophysical properties of imidazolium-based ionic liquids"}, "phases": ["Metastable crystal", "Liquid"], "dhead": [["Normal melting temperature, K"]], "data": [[["256.1", "2"]]], "components": [{"idout": "ABXNPV", "sample": [["Source:", "commercial source"], ["Initial purification:", "stated by supplier"], ["Initial purity:", "99 % (basis not specified)"], ["Final purification:", "Karl Fischer titration"], ["Final purity:", "0.023 water mass %(dried by vacuum heating)"]], "name": "1-ethyl-3-methylimidazolium bis[(trifluoromethyl)sulfonyl]imide", "formula": "C<SUB>8</SUB>H<SUB>11</SUB>F<SUB>6</SUB>N<SUB>3</SUB>O<SUB>4</SUB>S<SUB>2</SUB>", "mw": "391.30"}], "constr": ["Pressure of 1 atm"]}