{"footer": "", "solvent": null, "expmeth": "DSC/DTA", "ref": {"full": "Fredlake, C. P.; Crosthwaite, J. M.; Hert, D. G.; Aki, S. N. V. K.; Brennecke, J. F. (2004) J. Chem. Eng. Data 49(4), 954-964.", "title": "Thermophysical properties of imidazolium-based ionic liquids"}, "title": "Phase transition properties: Normal melting temperature", "phases": ["Crystal", "Liquid"], "dhead": [["Normal melting temperature, K"]], "data": [[["298.1", "1"]]], "constr": ["Pressure of 1 atm"], "components": [{"mw": "405.33", "sample": [["Source:", "commercial source"], ["Initial purification:", "stated by supplier"], ["Initial purity:", "99 % (basis not specified)"], ["Final purification:", "Karl Fischer titration"], ["Final purity:", "0.022 water mass %(dried by vacuum heating)"]], "idout": "ABZxcF", "name": "1-ethyl-2,3-dimethylimidazolium bis[(trifluoromethyl)sulfonyl]imide", "formula": "C<SUB>9</SUB>H<SUB>13</SUB>F<SUB>6</SUB>N<SUB>3</SUB>O<SUB>4</SUB>S<SUB>2</SUB>"}]}