{"phases": ["Crystal", "Liquid"], "dhead": [["Normal melting temperature, K"]], "data": [[["284.1", "1"]]], "components": [{"mw": "284.19", "formula": "C<SUB>8</SUB>H<SUB>15</SUB>F<SUB>6</SUB>N<SUB>2</SUB>P", "name": "1-butyl-3-methylimidazolium hexafluorophosphate", "sample": [["Source:", "commercial source"], ["Purity analysis:", "dried by oven heating;impurity adsorption"]], "idout": "ABChPJ"}], "constr": ["Pressure of 1 atm"], "footer": "", "solvent": null, "expmeth": "DSC/DTA", "ref": {"title": "Thermophysical properties of imidazolium-based ionic liquids", "full": "Fredlake, C. P.; Crosthwaite, J. M.; Hert, D. G.; Aki, S. N. V. K.; Brennecke, J. F. (2004) J. Chem. Eng. Data 49(4), 954-964."}, "title": "Phase transition properties: Normal melting temperature"}