{"solvent": null, "expmeth": "DSC/DTA", "footer": "", "ref": {"full": "Fredlake, C. P.; Crosthwaite, J. M.; Hert, D. G.; Aki, S. N. V. K.; Brennecke, J. F. (2004) J. Chem. Eng. Data 49(4), 954-964.", "title": "Thermophysical properties of imidazolium-based ionic liquids"}, "title": "Phase transition properties: Normal melting temperature", "dhead": [["Normal melting temperature, K"]], "phases": ["Crystal", "Liquid"], "data": [[["267.1", "1"]]], "components": [{"formula": "C<SUB>10</SUB>H<SUB>15</SUB>N<SUB>5</SUB>", "name": "1-butyl-3-methylimidazolium dicyanamide", "idout": "AAnYfG", "sample": [["Source:", "synthesized by the authors"], ["Purification:", "ion-selective electrode;Karl Fischer titration"], ["Purity:", "0.0293 halide impurity mass %;0.515 water mass %(dried by vacuum heating;impurity adsorption)"]], "mw": "205.26"}], "constr": ["Pressure of 1 atm"]}