{"expmeth": "DSC/DTA", "solvent": null, "footer": "", "title": "Phase transition properties: Normal melting temperature", "ref": {"full": "Funasako, Y.; Abe, A.; Mochida, T. (2012) Thermochim. Acta 532, 78-82.", "title": "Ferrocenium ionic liquids: phase transitions and physical properties"}, "dhead": [["Normal melting temperature, K"]], "phases": ["Crystal", "Liquid"], "data": [[["354.05", "0.5"]]], "components": [{"mw": "510.51", "idout": "ABuJVj", "sample": [["Source:", "synthesized by the authors"]], "name": "1-hexyl-1',2,2',3,3',4,4',5-octamethylferrocenium tetracyanoethylenide", "formula": "C<SUB>30</SUB>H<SUB>38</SUB>FeN<SUB>4</SUB>"}], "constr": ["Pressure of 1 atm"]}