{"dhead": [["Normal melting temperature, K"]], "phases": ["Crystal", "Liquid"], "data": [[["373.35", "0.5"]]], "components": [{"mw": "482.45", "idout": "ABoorP", "sample": [["Source:", "synthesized by the authors"]], "name": "1-butyl-1',2,2',3,3',4,4',5-octamethylferrocenium, tetracyanoethylenide", "formula": "C<SUB>28</SUB>H<SUB>34</SUB>FeN<SUB>4</SUB>"}], "constr": ["Pressure of 1 atm"], "solvent": null, "expmeth": "DSC/DTA", "footer": "", "ref": {"title": "Ferrocenium ionic liquids: phase transitions and physical properties", "full": "Funasako, Y.; Abe, A.; Mochida, T. (2012) Thermochim. Acta 532, 78-82."}, "title": "Phase transition properties: Normal melting temperature"}