{"footer": "", "expmeth": "DSC/DTA", "solvent": null, "ref": {"full": "Funasako, Y.; Abe, A.; Mochida, T. (2012) Thermochim. Acta 532, 78-82.", "title": "Ferrocenium ionic liquids: phase transitions and physical properties"}, "title": "Phase transition properties: Normal melting temperature", "phases": ["Crystal", "Liquid"], "dhead": [["Normal melting temperature, K"]], "data": [[["300.85", "0.5"]]], "components": [{"mw": "662.55", "formula": "C<SUB>26</SUB>H<SUB>38</SUB>F<SUB>6</SUB>FeNO<SUB>4</SUB>S<SUB>2</SUB>", "idout": "ACXVcr", "sample": [["Source:", "synthesized by the authors"]], "name": "1-hexyl-1',2,2',3,3',4,4',5-octamethylferrocenium bis(trifluoromethylsulfonyl)amide"}], "constr": ["Pressure of 1 atm"]}