{"expmeth": "Adiabatic calorimetry", "solvent": null, "footer": "", "title": "Phase transition properties: Normal melting temperature", "ref": {"full": "Galvez-Ruiz, J. C.; Holl, G.; Karaghiosoff, K.; Klapotke, T. M.; Lohnwitz, K.; Mayer, P.; Noth, H.; Polborn, K.; Rohbogner, C. J.; Suter, M.; Weigand, J. J. (2005) Inorg. Chem. 44(12), 4237-4253.", "title": "Derivatives of 1,5-diamino-1H-tetrazole: a new family of energetic heterocyclic-based salts."}, "constr": ["Pressure of 1 atm"], "components": [{"mw": "179.14", "name": "1,5-diamino-4-methyl-4,5-dihydro-1H-tetrazol-1-ium nitrate", "idout": "AAiXqE", "sample": [["Source:", "synthesized by the authors"], ["Purification:", "not known"], ["Purity:", "93 % (basis not specified)(crystallization from solution;de-gassed by evacuation)"]], "formula": "C<SUB>2</SUB>H<SUB>9</SUB>N<SUB>7</SUB>O<SUB>3</SUB>"}], "dhead": [["Normal melting temperature, K"]], "phases": ["Crystal", "Liquid"], "data": [[["394.1", "1"]]]}