{"footer": "", "expmeth": "Adiabatic calorimetry", "solvent": null, "ref": {"title": "Derivatives of 1,5-diamino-1H-tetrazole: a new family of energetic heterocyclic-based salts.", "full": "Galvez-Ruiz, J. C.; Holl, G.; Karaghiosoff, K.; Klapotke, T. M.; Lohnwitz, K.; Mayer, P.; Noth, H.; Polborn, K.; Rohbogner, C. J.; Suter, M.; Weigand, J. J. (2005) Inorg. Chem. 44(12), 4237-4253."}, "title": "Phase transition properties: Normal melting temperature", "constr": ["Pressure of 1 atm"], "components": [{"mw": "221.14", "name": "1,5-diamino-4-methyl-1H-tetrazolium dinitramide", "sample": [["Source:", "synthesized by the authors"], ["Purification:", "not known"], ["Purity:", "85 % (basis not specified)(chemical reagent treatment;crystallization from solution)"]], "idout": "AAqbpQ", "formula": "C<SUB>2</SUB>H<SUB>7</SUB>N<SUB>9</SUB>O<SUB>4</SUB>"}], "phases": ["Crystal", "Liquid"], "dhead": [["Normal melting temperature, K"]], "data": [[["358.1", "1"]]]}