{"dhead": [["Normal melting temperature, K"]], "phases": ["Crystal", "Liquid"], "data": [[["223.1", "1"]]], "components": [{"formula": "C<SUB>8</SUB>H<SUB>19</SUB>N<SUB>3</SUB>O<SUB>3</SUB>", "name": "1,1,3,3-tetramethylguanidinium lactate", "sample": [["Purity analysis:", "unspecified"]], "idout": "AAnYuJ", "mw": "205.26"}], "constr": ["Pressure of 1 atm"], "solvent": null, "expmeth": "Visual observation", "footer": "", "ref": {"title": "Preparation of Room-Temperature Ionic Liquids by Neutralization of 1,1,3,3-Tetramethylguanidine with Acids and their Use as Media for Mannich Reaction", "full": "Gao, H.; Han, B.; Li, J.; Jiang, T.; Liu, Z.; Wu, W.; Chang, Y.; Zhang, J. (2004) Synth. Commun. 34(17), 3083-3089."}, "title": "Phase transition properties: Normal melting temperature"}