{"footer": "", "expmeth": "", "solvent": null, "ref": {"title": "The Enthalpy of Sublimation of Germanium Difluoride and the Thermodynamics of Sublimation of the Group IVa Difluorides", "full": "Adams, G. P.; Margrave, J. L.; Steiger, R. P.; Wilson, P. W. (1971) J. Chem. Thermodyn. 3(3), 297-305."}, "title": "Phase transition properties: Normal melting temperature", "phases": ["Crystal", "Liquid"], "dhead": [["Normal melting temperature, K"]], "data": [[["385.1", "1.5"]]], "components": [{"name": "difluorogermylene", "idout": "AAVOlv", "sample": [["Purification:", "thermal analysis using temperature-time measurement"], ["Purity:", "99.8 mol %"]], "formula": "F<SUB>2</SUB>Ge", "mw": "110.63"}], "constr": ["Pressure of 1 atm"]}