{"dhead": [["Normal melting temperature, K"]], "phases": ["Crystal", "Liquid"], "data": [[["282.1", "1.1"]]], "constr": ["Pressure of 1 atm"], "components": [{"mw": "522.42", "name": "1-butyl-1-methylpyrrolidinium bis((perfluoroethyl)sulfonyl)amide", "idout": "ABwYAN", "sample": [["Source:", "synthesized by the authors"], ["Purification:", "estimated by the compiler"], ["Purity:", "99.8 mass %"]], "formula": "C<SUB>13</SUB>H<SUB>20</SUB>F<SUB>10</SUB>N<SUB>2</SUB>O<SUB>4</SUB>S<SUB>2</SUB>"}], "expmeth": "DSC/DTA", "solvent": null, "footer": "", "title": "Phase transition properties: Normal melting temperature", "ref": {"title": "Chemical physical properties of bis(perfluoroalkylsulfonyl)imide-based ionic liquids", "full": "Appetecchi, G. B.; Montanino, M.; Carewska, M.; Moreno, M.; Alessandrini, F.; Passerini, S. (2011) Electrochim. Acta 56, 1300-1307."}}