{"footer": "", "expmeth": "Heating/Cooling curves", "solvent": null, "title": "Phase transition properties: Normal melting temperature", "ref": {"title": "Thermal Analysis and Heat Capacities of 1-Alkyl-3-methylimidazolium Ionic Liquids with NTf2-, TFO-, and DCA- Anions", "full": "Gomez, E.; Calvar, N.; Dominguez, A.; Macedo, E. A. (2013) Ind. Eng. Chem. Res. 52, 2103-2110."}, "phases": ["Crystal", "Liquid"], "dhead": [["Normal melting temperature, K"]], "data": [[["269", "3"]]], "constr": ["Pressure of 1 atm"], "components": [{"mw": "447.41", "name": "1-hexyl-3-methylimidazolium bis[(trifluoromethyl)sulfonyl]imide", "sample": [["Source:", "commercial source"], ["Initial purification:", "stated by supplier"], ["Initial purity:", "99 mass %"], ["Final purification:", "Karl Fischer titration;not known"], ["Final purity:", "0.005 water mass %;0.01 halide impurity mass %(dried by vacuum heating)"]], "idout": "ABiCZb", "formula": "C<SUB>12</SUB>H<SUB>19</SUB>F<SUB>6</SUB>N<SUB>3</SUB>O<SUB>4</SUB>S<SUB>2</SUB>"}]}