{"footer": "", "solvent": null, "expmeth": "Heating/Cooling curves", "title": "Phase transition properties: Normal melting temperature", "ref": {"title": "Thermal Analysis and Heat Capacities of 1-Alkyl-3-methylimidazolium Ionic Liquids with NTf2-, TFO-, and DCA- Anions", "full": "Gomez, E.; Calvar, N.; Dominguez, A.; Macedo, E. A. (2013) Ind. Eng. Chem. Res. 52, 2103-2110."}, "phases": ["Crystal", "Liquid"], "dhead": [["Normal melting temperature, K"]], "data": [[["269", "3"]]], "constr": ["Pressure of 1 atm"], "components": [{"mw": "419.36", "formula": "C<SUB>10</SUB>H<SUB>15</SUB>F<SUB>6</SUB>N<SUB>3</SUB>O<SUB>4</SUB>S<SUB>2</SUB>", "name": "1-butyl-3-methylimidazolium bis(trifluoromethylsulfonyl)imide", "sample": [["Source:", "commercial source"], ["Initial purification:", "stated by supplier"], ["Initial purity:", "98 mass %"], ["Final purification:", "Karl Fischer titration"], ["Final purity:", "0.01 water mass %(dried by vacuum heating)"]], "idout": "ABchaf"}]}