{"solvent": null, "expmeth": "DSC/DTA", "footer": "", "title": "Phase transition properties: Normal melting temperature", "ref": {"title": "Physical properties of the pure 1-methyl-1-propylpyrrolidinium bis(trifluoromethylsulfonyl)imide ionic liquid and its binary mixtures with alcohols", "full": "Gonzalez, B.; Gonzalez, E. J. (2014) J. Chem. Thermodyn. 68, 109-116."}, "dhead": [["Normal melting temperature, K"]], "phases": ["Crystal", "Liquid"], "data": [[["284.1", "2"]]], "constr": ["Pressure of 1 atm"], "components": [{"formula": "C<SUB>10</SUB>H<SUB>18</SUB>F<SUB>6</SUB>N<SUB>2</SUB>O<SUB>4</SUB>S<SUB>2</SUB>", "name": "1-methyl-1-propylpyrrolidinium bis[(trifluoromethyl)sulfonyl]imide", "idout": "ABabro", "sample": [["Source:", "commercial source"], ["Initial purification:", "stated by supplier"], ["Initial purity:", "99 mass %"], ["Final purification:", "Karl Fischer titration"], ["Final purity:", "0.0431 water mass %(dried by vacuum heating)"]], "mw": "408.37"}]}