{"data": [[["306", "2"]]], "phases": ["Crystal", "Liquid"], "dhead": [["Normal melting temperature, K"]], "constr": ["Pressure of 1 atm"], "components": [{"name": "N,N-diethyl-N-methylethanaminium methyl sulfate", "idout": "AArlrg", "sample": [["Source:", "synthesized by the authors"], ["Purity analysis:", "dried by vacuum heating"]], "formula": "C<SUB>8</SUB>H<SUB>21</SUB>NO<SUB>4</SUB>S", "mw": "227.32"}], "title": "Phase transition properties: Normal melting temperature", "ref": {"full": "Gonzalez, B.; Gomez, E.; Dominguez, A.; Vilas, M.; Tojo, E. (2011) J. Chem. Eng. Data 56(1), 14-20.", "title": "Physicochemical Characterization of New Sulfate Ionic Liquids"}, "footer": "", "solvent": null, "expmeth": "DSC/DTA"}