{"data": [[["326", "2"]]], "phases": ["Crystal", "Liquid"], "dhead": [["Normal melting temperature, K"]], "constr": ["Pressure of 1 atm"], "components": [{"sample": [["Source:", "synthesized by the authors"], ["Purity analysis:", "dried by vacuum heating"]], "idout": "ABCGOI", "name": "1-butyl-1-ethylpyrrolidinium ethyl sulfate", "formula": "C<SUB>12</SUB>H<SUB>27</SUB>NO<SUB>4</SUB>S", "mw": "281.41"}], "ref": {"full": "Gonzalez, B.; Gomez, E.; Dominguez, A.; Vilas, M.; Tojo, E. (2011) J. Chem. Eng. Data 56(1), 14-20.", "title": "Physicochemical Characterization of New Sulfate Ionic Liquids"}, "title": "Phase transition properties: Normal melting temperature", "footer": "", "solvent": null, "expmeth": "DSC/DTA"}