{"footer": "", "solvent": null, "expmeth": "Visual observation", "ref": {"title": "Thermophysical properties of dimethylsulfoxide with ionic liquids at various temperatures", "full": "Govinda, V.; Attri, P.; Venkatesu, P.; Venkateswarlu, P. (2011) Fluid Phase Equilib. 304(1-2), 35-43."}, "title": "Phase transition properties: Normal melting temperature", "constr": ["Pressure of 1 atm"], "components": [{"formula": "C<SUB>4</SUB>H<SUB>13</SUB>NO<SUB>4</SUB>S", "name": "diethylammonium hydrogen sulfate", "sample": [["Source:", "synthesized by the authors"], ["Purification:", "estimated by the compiler;Karl Fischer titration"], ["Purity:", "98 % (basis not specified);0.007 water mass %(dried by vacuum heating)"]], "idout": "AAgwed", "mw": "171.21"}], "phases": ["Crystal", "Liquid"], "dhead": [["Normal melting temperature, K"]], "data": [[["354.1", "1"]]]}