{"footer": "", "solvent": null, "expmeth": "Visual observation", "ref": {"full": "Govinda, V.; Reddy, P. M.; Attri, P.; Venkatesu, P.; Venkateswarlu, P. (2013) J. Chem. Thermodyn. 58, 269-278.", "title": "Influence of anion on thermophysical properties of ionic liquids with polar solvent"}, "title": "Phase transition properties: Normal melting temperature", "phases": ["Crystal", "Liquid"], "dhead": [["Normal melting temperature, K"]], "data": [[["402.1", "1"]]], "components": [{"mw": "157.18", "formula": "C<SUB>3</SUB>H<SUB>11</SUB>NO<SUB>4</SUB>S", "name": "trimethylammonium hydrogen sulfate", "idout": "AAeLgS", "sample": [["Source:", "synthesized by the authors"], ["Purification:", "NMR (proton)"], ["Purity:", "99 mass %(dried by vacuum heating)"]]}], "constr": ["Pressure of 1 atm"]}