{"data": [[["279.6", "1.1"]]], "phases": ["Crystal", "Liquid"], "dhead": [["Normal melting temperature, K"]], "constr": ["Pressure of 1 atm"], "components": [{"formula": "C<SUB>12</SUB>H<SUB>18</SUB>F<SUB>10</SUB>N<SUB>2</SUB>O<SUB>4</SUB>S<SUB>2</SUB>", "name": "1-methyl-1-propylpyrrolidin-1-ium bis((perfluoroethyl)sulfonyl)amide", "idout": "ABtnxx", "sample": [["Source:", "synthesized by the authors"], ["Purification:", "estimated by the compiler"], ["Purity:", "99.8 mass %"]], "mw": "508.39"}], "title": "Phase transition properties: Normal melting temperature", "ref": {"title": "Chemical physical properties of bis(perfluoroalkylsulfonyl)imide-based ionic liquids", "full": "Appetecchi, G. B.; Montanino, M.; Carewska, M.; Moreno, M.; Alessandrini, F.; Passerini, S. (2011) Electrochim. Acta 56, 1300-1307."}, "footer": "", "expmeth": "DSC/DTA", "solvent": null}