{"dhead": [["Normal melting temperature, K"]], "phases": ["Crystal", "Liquid"], "data": [[["389.1", "1"]]], "constr": ["Pressure of 1 atm"], "components": [{"mw": "157.11", "name": "trimethylammonium dihydrogen phosphate", "idout": "AAeLoN", "sample": [["Source:", "synthesized by the authors"], ["Purification:", "NMR (proton)"], ["Purity:", "99 mass %(dried by vacuum heating)"]], "formula": "C<SUB>3</SUB>H<SUB>12</SUB>NO<SUB>4</SUB>P"}], "solvent": null, "expmeth": "Visual observation", "footer": "", "ref": {"title": "Influence of anion on thermophysical properties of ionic liquids with polar solvent", "full": "Govinda, V.; Reddy, P. M.; Attri, P.; Venkatesu, P.; Venkateswarlu, P. (2013) J. Chem. Thermodyn. 58, 269-278."}, "title": "Phase transition properties: Normal melting temperature"}