{"footer": "", "solvent": null, "expmeth": "DSC/DTA", "ref": {"full": "Greaves, T. L.; Weerawardena, A.; Fong, C.; Krodkiewska, I.; Drummond, C. J. (2006) J. Phys. Chem. B 110(45), 22479-22487.", "title": "Protic Ionic Liquids: Solvents with Tunable Phase Behavior and Physicochemical  Properties"}, "title": "Phase transition properties: Normal melting temperature", "phases": ["Crystal 1", "Liquid"], "dhead": [["Normal melting temperature, K"]], "data": [[["282.1", "1"]]], "components": [{"mw": "108.10", "formula": "C<SUB>2</SUB>H<SUB>8</SUB>N<SUB>2</SUB>O<SUB>3</SUB>", "sample": [["Source:", "synthesized by the authors"], ["Purification:", "Karl Fischer titration"], ["Purity:", "0.22 water mass %(dried by vacuum heating)"]], "idout": "AAUodx", "name": "ethylammonium nitrate"}], "constr": ["Pressure of 1 atm"]}