{"dhead": [["Normal melting temperature, K"]], "phases": ["Crystal", "Liquid"], "data": [[["323.1", "5"]]], "constr": ["Pressure of 1 atm"], "components": [{"sample": [["Source:", "synthesized by the authors"], ["Purification:", "Karl Fischer titration"], ["Purity:", "0.61 water mass %(dried by vacuum heating)"]], "idout": "AAULqJ", "name": "propylammonium formate", "formula": "C<SUB>4</SUB>H<SUB>11</SUB>NO<SUB>2</SUB>", "mw": "105.14"}], "solvent": null, "expmeth": "DSC/DTA", "footer": "", "ref": {"title": "Protic Ionic Liquids: Solvents with Tunable Phase Behavior and Physicochemical  Properties", "full": "Greaves, T. L.; Weerawardena, A.; Fong, C.; Krodkiewska, I.; Drummond, C. J. (2006) J. Phys. Chem. B 110(45), 22479-22487."}, "title": "Phase transition properties: Normal melting temperature"}