{"data": [[["379.1", "5"]]], "phases": ["Crystal", "Liquid"], "dhead": [["Normal melting temperature, K"]], "constr": ["Pressure of 1 atm"], "components": [{"formula": "C<SUB>4</SUB>H<SUB>11</SUB>NO<SUB>4</SUB>", "sample": [["Source:", "synthesized by the authors"], ["Purification:", "Karl Fischer titration"], ["Purity:", "0.17 water mass %(dried by vacuum heating)"]], "idout": "AAaTxe", "name": "ethanolammonium glycolate", "mw": "137.13"}], "ref": {"title": "Protic Ionic Liquids: Solvents with Tunable Phase Behavior and Physicochemical  Properties", "full": "Greaves, T. L.; Weerawardena, A.; Fong, C.; Krodkiewska, I.; Drummond, C. J. (2006) J. Phys. Chem. B 110(45), 22479-22487."}, "title": "Phase transition properties: Normal melting temperature", "footer": "", "solvent": null, "expmeth": "DSC/DTA"}