{"dhead": [["Normal melting temperature, K"]], "phases": ["Crystal", "Liquid"], "data": [[["286.1", "5"]]], "constr": ["Pressure of 1 atm"], "components": [{"formula": "C<SUB>2</SUB>H<SUB>7</SUB>NO<SUB>2</SUB>", "idout": "AAOqRQ", "sample": [["Source:", "synthesized by the authors"], ["Purification:", "Karl Fischer titration"], ["Purity:", "0.42 water mass %(dried by vacuum heating)"]], "name": "methanaminium formate", "mw": "77.08"}], "expmeth": "DSC/DTA", "solvent": null, "footer": "", "title": "Phase transition properties: Normal melting temperature", "ref": {"title": "Protic Ionic Liquids: Solvents with Tunable Phase Behavior and Physicochemical  Properties", "full": "Greaves, T. L.; Weerawardena, A.; Fong, C.; Krodkiewska, I.; Drummond, C. J. (2006) J. Phys. Chem. B 110(45), 22479-22487."}}