{"components": [{"idout": "AAtWXx", "sample": [["Source:", "synthesized by the authors"], ["Purification:", "estimated by the compiler;Karl Fischer titration"], ["Purity:", "95 mol %;0.24 water mass %"]], "name": "1-butyl-3-methylimidazolium hydrogen sulfate", "formula": "C<SUB>8</SUB>H<SUB>16</SUB>N<SUB>2</SUB>O<SUB>4</SUB>S", "mw": "236.29"}], "constr": ["Pressure of 1 atm"], "dhead": [["Normal melting temperature, K"]], "phases": ["Crystal", "Liquid"], "data": [[["301.9", "2"]]], "solvent": null, "expmeth": "DSC/DTA", "footer": "", "ref": {"full": "Grishina, E. P.; Ramenskaya, L. M.; Gruzdev, M. S.; Kraeva, O. V. (2013) J. Mol. Liq. 177, 267-272.", "title": "Water effect on physicochemical properties of 1-butyl-3-methylimidazolium based ionic liquids with inorganic anions"}, "title": "Phase transition properties: Normal melting temperature"}