{"footer": "", "solvent": null, "expmeth": "DSC/DTA", "title": "Phase transition properties: Normal melting temperature", "ref": {"title": "Solubility of 3,3'-(Oxidi-2,1-ethanediyl)bis[1-methyl-imidazolium] Dihexafluorophosphate in Water, Methanol, Ethanol, Acetone, and Acetonitrile and Binary Mixtures (Water + DMF) from (283.00 to 323.00) K", "full": "Guo, J.-r.; Xu, B.; Zhuang, L.-H.; Wang, Y.; Wang, G.-W. (2015) J. Chem. Eng. Data 60(4), 1091-1097."}, "phases": ["Crystal", "Liquid"], "dhead": [["Normal melting temperature, K"]], "data": [[["371.1", "1"]]], "components": [{"name": "1,1'-(oxybis(ethane-2,1-diyl))bis(3-methylimidazolium) hexafluorophosphate", "idout": "ABxKdg", "sample": [["Source:", "synthesized by the authors"], ["Purification:", "gas chromatography"], ["Purity:", "99 mass %"]], "formula": "C<SUB>12</SUB>H<SUB>20</SUB>F<SUB>12</SUB>N<SUB>4</SUB>OP<SUB>2</SUB>", "mw": "526.25"}], "constr": ["Pressure of 1 atm"]}