{"expmeth": "DSC/DTA", "solvent": null, "footer": "", "ref": {"title": "Phase Behavior of Ionic Liquid- LiX Mixtures: PyrroIidinium Cations and TFSI- Anions", "full": "Henderson, W. A.; Passerini, S. (2004) Chem. Mater. 16, 2881-2885."}, "title": "Phase transition properties: Normal melting temperature", "constr": ["Pressure of 1 atm"], "components": [{"formula": "C<SUB>9</SUB>H<SUB>16</SUB>F<SUB>6</SUB>N<SUB>2</SUB>O<SUB>4</SUB>S<SUB>2</SUB>", "name": "1-ethyl-1-methylpyrrolidinium bis[(trifluoromethyl)sulfonyl]imide", "idout": "ABXrew", "sample": [["Source:", "synthesized by the authors"], ["Purity analysis:", "dried by vacuum heating"]], "mw": "394.35"}], "dhead": [["Normal melting temperature, K"]], "phases": ["Crystal 1", "Liquid"], "data": [[["363.1", "2"]]]}