{"dhead": [["Normal melting temperature, K"]], "phases": ["Crystal 1", "Liquid"], "data": [[["363.1", "1"]]], "components": [{"mw": "394.35", "name": "1-ethyl-1-methylpyrrolidinium bis[(trifluoromethyl)sulfonyl]imide", "sample": [["Source:", "synthesized by the authors"]], "idout": "ABXrew", "formula": "C<SUB>9</SUB>H<SUB>16</SUB>F<SUB>6</SUB>N<SUB>2</SUB>O<SUB>4</SUB>S<SUB>2</SUB>"}], "constr": ["Pressure of 1 atm"], "solvent": null, "expmeth": "DSC/DTA", "footer": "", "title": "Phase transition properties: Normal melting temperature", "ref": {"title": "Microstructural and molecular level characterisation of plastic crystal phases of pyrrolidinium trifluoromethanesulfonyl salts", "full": "Hill, A. J.; Huang, J.; Efthimiadis, J.; Meakin, P.; Forsyth, M.; MacFarlane, D. R. (2002) Solid State Ionics 154-155, 119-124."}}