{"solvent": null, "expmeth": "DSC/DTA", "footer": "", "ref": {"full": "Holbrey, J. D.; Reichert, W. M.; Nieuwenhuyzen, M.; Johnston, S.; Seddon, K. R.; Rogers, R. D. (2003) Chem. Commun. 1636-1637.", "title": "Crystal polymorphism in 1-butyl-3-methylimidazolium halides: supporting ionic liquid formation by inhibition of crystallization "}, "title": "Phase transition properties: Normal melting temperature", "constr": ["Pressure of 1 atm"], "components": [{"mw": "174.67", "formula": "C<SUB>8</SUB>H<SUB>15</SUB>ClN<SUB>2</SUB>", "idout": "AAhedZ", "sample": [["Source:", "synthesized by the authors"], ["Purification:", "estimated by the compiler"], ["Purity:", "97 mass %"]], "name": "1-butyl-3-methylimidazolium chloride"}], "dhead": [["Normal melting temperature, K"]], "phases": ["Crystal 1", "Liquid"], "data": [[["339.1", "1"]]]}