{"solvent": null, "expmeth": "DSC/DTA", "footer": "", "title": "Phase transition properties: Normal melting temperature", "ref": {"full": "Hu, H.-C.; Soriano, A. N.; Leron, R. B.; Li, M.-H. (2011) Thermochim. Acta 519(1-2), 44-9.", "title": "Molar heat capacity of four aqueous ionic liquid mixtures"}, "dhead": [["Normal melting temperature, K"]], "phases": ["Crystal", "Liquid"], "data": [[["346.1", "2"]]], "components": [{"formula": "C<SUB>8</SUB>H<SUB>15</SUB>BrN<SUB>2</SUB>", "name": "1-butyl-3-methylimidazolium bromide", "sample": [["Source:", "commercial source"], ["Initial purification:", "stated by supplier"], ["Initial purity:", "98 mass %"], ["Final purification:", "Karl Fischer titration"], ["Final purity:", "0.5 water mass %(dried by vacuum heating)"]], "idout": "AAqHDZ", "mw": "219.13"}], "constr": ["Pressure of 1 atm"]}