{"data": [[["314.1", "4"]]], "phases": ["Metastable crystal", "Liquid"], "dhead": [["Normal melting temperature, K"]], "constr": ["Pressure of 1 atm"], "components": [{"name": "1-butyl-3-methylimidazolium chloride", "sample": [["Source:", "synthesized by the authors"], ["Purification:", "Karl Fischer titration"], ["Purity:", "0.22 water mass %(dried by vacuum heating)"]], "idout": "AAhedZ", "formula": "C<SUB>8</SUB>H<SUB>15</SUB>ClN<SUB>2</SUB>", "mw": "174.67"}], "ref": {"title": "Characterization and comparison of hydrophilic and hydrophobic room temperature ionic liquids incorporating the imidazolium cation", "full": "Huddleston, J. G.; Visser, A. E.; Reichert, W. M.; Willauer, H. D.; Broker, G. A.; Rogers, R. D. (2001) Green Chem. 2001(3), 156-164."}, "title": "Phase transition properties: Normal melting temperature", "footer": "", "expmeth": "DSC/DTA", "solvent": null}