{"footer": "", "expmeth": "DSC/DTA", "solvent": null, "title": "Phase transition properties: Normal melting temperature", "ref": {"full": "Arce, A.; Earle, M. J.; Katdare, S. P.; Rodriguez, H.; Seddon, K. R. (2007) Fluid Phase Equilib. 261(1-2), 427-433.", "title": "Phase equilibria of mixtures of mutually immiscible ionic liquids"}, "constr": ["Pressure of 1 atm"], "components": [{"formula": "C<SUB>34</SUB>H<SUB>68</SUB>F<SUB>6</SUB>NO<SUB>4</SUB>PS<SUB>2</SUB>", "name": "trihexyl(tetradecyl)phosphonium bis[(trifluoromethyl)sulfonyl]imide", "idout": "ACqwQt", "sample": [["Source:", "synthesized by the authors"], ["Purification:", "Karl Fischer titration"], ["Purity:", "0.04 water mass %"]], "mw": "764.01"}], "phases": ["Crystal", "Liquid"], "dhead": [["Normal melting temperature, K"]], "data": [[["306.1", "1"]]]}