{"phases": ["Metastable crystal", "Liquid"], "dhead": [["Normal melting temperature, K"]], "data": [[["249.81", "0.61"]]], "components": [{"mw": "475.47", "formula": "C<SUB>14</SUB>H<SUB>23</SUB>F<SUB>6</SUB>N<SUB>3</SUB>O<SUB>4</SUB>S<SUB>2</SUB>", "name": "1-octyl-3-methylimidazolium bis[(trifluoromethyl)sulfonyl]imide", "sample": [["Source:", "synthesized by others"], ["Purification:", "Karl Fischer titration"], ["Purity:", "0.004 water mass %"]], "idout": "ABnWaS"}], "constr": ["Pressure of 1 atm"], "footer": "", "solvent": null, "expmeth": "DSC/DTA", "title": "Phase transition properties: Normal melting temperature", "ref": {"title": "Heat Capacities and Low Temperature Thermal Transitions of 1-Hexyl and 1-Octyl-3-methylimidazolium bis(trifluoromethylsulfonyl)amide", "full": "Hughes, T. J.; Syed, T.; Graham, B. F.; Marsh, K. N.; May, E. F. (2011) J. Chem. Eng. Data 56(5), 2153-2159."}}