{"phases": ["Crystal", "Liquid"], "dhead": [["Normal melting temperature, K"]], "data": [[["271.45", "0.61"]]], "constr": ["Pressure of 1 atm"], "components": [{"formula": "C<SUB>12</SUB>H<SUB>19</SUB>F<SUB>6</SUB>N<SUB>3</SUB>O<SUB>4</SUB>S<SUB>2</SUB>", "name": "1-hexyl-3-methylimidazolium bis[(trifluoromethyl)sulfonyl]imide", "sample": [["Source:", "synthesized by others"], ["Purification:", "Karl Fischer titration"], ["Purity:", "0.0103 water mass %"]], "idout": "ABiCZb", "mw": "447.41"}], "footer": "", "solvent": null, "expmeth": "DSC/DTA", "title": "Phase transition properties: Normal melting temperature", "ref": {"full": "Hughes, T. J.; Syed, T.; Graham, B. F.; Marsh, K. N.; May, E. F. (2011) J. Chem. Eng. Data 56(5), 2153-2159.", "title": "Heat Capacities and Low Temperature Thermal Transitions of 1-Hexyl and 1-Octyl-3-methylimidazolium bis(trifluoromethylsulfonyl)amide"}}