{"solvent": null, "expmeth": "DSC/DTA", "footer": "", "title": "Phase transition properties: Normal melting temperature", "ref": {"full": "Jia, C.; Cao, Y.; Zuo, T.; Hu, R.; Yao, T.; Song, H. (2015) J. Chem. Eng. Data 60(4), 999-1005.", "title": "Solubility of Benzothiazolium Ionic Liquids in Water and in Furfural"}, "constr": ["Pressure of 1 atm"], "components": [{"mw": "379.35", "name": "3-heptylbenzo[d]thiazol-3-ium hexafluorophosphate", "idout": "ABUxUa", "sample": [["Source:", "synthesized by the authors"]], "formula": "C<SUB>14</SUB>H<SUB>20</SUB>F<SUB>6</SUB>NPS"}], "dhead": [["Normal melting temperature, K"]], "phases": ["Crystal", "Liquid"], "data": [[["359.3", "0.5"]]]}