{"dhead": [["Normal melting temperature, K"]], "phases": ["Crystal", "Liquid"], "data": [[["358.79", "0.5"]]], "constr": ["Pressure of 1 atm"], "components": [{"formula": "C<SUB>13</SUB>H<SUB>18</SUB>F<SUB>6</SUB>NPS", "name": "N-hexylbenzothiazolium hexafluorophosphate", "sample": [["Source:", "synthesized by the authors"]], "idout": "ABSNRI", "mw": "365.32"}], "solvent": null, "expmeth": "DSC/DTA", "footer": "", "title": "Phase transition properties: Normal melting temperature", "ref": {"title": "Solubility of Benzothiazolium Ionic Liquids in Water and in Furfural", "full": "Jia, C.; Cao, Y.; Zuo, T.; Hu, R.; Yao, T.; Song, H. (2015) J. Chem. Eng. Data 60(4), 999-1005."}}