{"components": [{"name": "1-butyl-2,3-dimethylimidazolium chloride", "sample": [["Source:", "synthesized by the authors"], ["Purification:", "estimated by the compiler"], ["Purity:", "97 mass %"]], "idout": "AAkOOP", "formula": "C<SUB>9</SUB>H<SUB>17</SUB>ClN<SUB>2</SUB>", "mw": "188.70"}], "constr": ["Pressure of 1 atm"], "dhead": [["Normal melting temperature, K"]], "phases": ["Crystal", "Liquid"], "data": [[["365.9", "1.1"]]], "expmeth": "Visual observation", "solvent": null, "footer": "", "title": "Phase transition properties: Normal melting temperature", "ref": {"title": "Hydrophobicity/Hydrophilicity of 1-Butyl-2,3-dimethyl and 1-Ethyl-3-methylimodazolium Ions: Toward Characterization of Room Temperature Ionic Liquids", "full": "Kato, H.; Miki, K.; Mukai, T.; Nishikawa, K.; Koga, Y. (2009) J. Phys. Chem. B 113, 14754-14760."}}