{"title": "Phase transition properties: Normal melting temperature", "ref": {"title": "Thermodynamic Properties of 1-hexyl-3-methylimidazolium bis(trifluoromethylsulfonyl)imide", "full": "Archer, D. G. (2006) National Insitute of Standards and Technology Thermodynamic Properties of 1-hexyl-3-methylimidazolium bis (trifluoromethylsulfonyl)imide NISTIR No. 6645."}, "footer": "", "solvent": null, "expmeth": "DSC/DTA", "data": [[["272.11", "0.29"]]], "phases": ["Crystal", "Liquid"], "dhead": [["Normal melting temperature, K"]], "components": [{"mw": "447.41", "formula": "C<SUB>12</SUB>H<SUB>19</SUB>F<SUB>6</SUB>N<SUB>3</SUB>O<SUB>4</SUB>S<SUB>2</SUB>", "name": "1-hexyl-3-methylimidazolium bis[(trifluoromethyl)sulfonyl]imide", "sample": [["Source:", "synthesized by others"], ["Initial purification:", "NMR (proton)"], ["Initial purity:", "99.5 % (basis not specified)"], ["Final purification:", "Karl Fischer titration"], ["Final purity:", "0.002 water mass %(molecular sieve treatment)"]], "idout": "ABiCZb"}], "constr": ["Pressure of 1 atm"]}