{"components": [{"formula": "C<SUB>8</SUB>H<SUB>16</SUB>F<SUB>6</SUB>N<SUB>2</SUB>O<SUB>4</SUB>S<SUB>2</SUB>", "idout": "ABVbmy", "sample": [["Source:", "commercial source"], ["Purification:", "estimated by the compiler;Karl Fischer titration"], ["Purity:", "97 mol %;0.001 water mass %;0.003 halide impurity mass %"]], "name": "N,N,N-trimethylpropanaminium bis((trifluoromethyl)sulfonyl)amide", "mw": "382.34"}], "constr": ["Pressure of 1 atm"], "dhead": [["Normal melting temperature, K"]], "phases": ["Crystal", "Liquid"], "data": [[["292.1", "2"]]], "expmeth": "Visual observation", "solvent": null, "footer": "", "ref": {"full": "Katsuta, S.; Shiozawa, Y.; Imai, K.; Kudo, Y.; Takeda, Y. (2010) J. Chem. Eng. Data 55(4), 1588-1593.", "title": "Stability of Ion Pairs of Bis(trifluoromethanesulfonyl)amide-Based Ionic Liquids in Dichloromethane"}, "title": "Phase transition properties: Normal melting temperature"}