{"expmeth": "Visual observation", "solvent": null, "footer": "", "ref": {"full": "Katsuta, S.; Shiozawa, Y.; Imai, K.; Kudo, Y.; Takeda, Y. (2010) J. Chem. Eng. Data 55(4), 1588-1593.", "title": "Stability of Ion Pairs of Bis(trifluoromethanesulfonyl)amide-Based Ionic Liquids in Dichloromethane"}, "title": "Phase transition properties: Normal melting temperature", "dhead": [["Normal melting temperature, K"]], "phases": ["Crystal", "Liquid"], "data": [[["319.1", "2"]]], "components": [{"mw": "438.44", "formula": "C<SUB>12</SUB>H<SUB>24</SUB>F<SUB>6</SUB>N<SUB>2</SUB>O<SUB>4</SUB>S<SUB>2</SUB>", "name": "methyltripropylammonium bis[(trifluoromethyl)sulfonyl]amide", "idout": "ABgQrq", "sample": [["Source:", "synthesized by the authors"], ["Purification:", "estimated by the compiler;Karl Fischer titration"], ["Purity:", "97 mol %;0.1 water mass %"]]}], "constr": ["Pressure of 1 atm"]}