{"phases": ["Crystal", "Liquid"], "dhead": [["Normal melting temperature, K"]], "data": [[["270.1", "2"]]], "constr": ["Pressure of 1 atm"], "components": [{"mw": "419.36", "name": "1-butyl-3-methylimidazolium bis(trifluoromethylsulfonyl)imide", "sample": [["Source:", "commercial source"], ["Purification:", "estimated by the compiler"], ["Purity:", "97 mol %"]], "idout": "ABchaf", "formula": "C<SUB>10</SUB>H<SUB>15</SUB>F<SUB>6</SUB>N<SUB>3</SUB>O<SUB>4</SUB>S<SUB>2</SUB>"}], "footer": "", "expmeth": "Visual observation", "solvent": null, "ref": {"title": "Stability of Ion Pairs of Bis(trifluoromethanesulfonyl)amide-Based Ionic Liquids in Dichloromethane", "full": "Katsuta, S.; Shiozawa, Y.; Imai, K.; Kudo, Y.; Takeda, Y. (2010) J. Chem. Eng. Data 55(4), 1588-1593."}, "title": "Phase transition properties: Normal melting temperature"}