{"phases": ["Crystal", "Liquid"], "dhead": [["Normal melting temperature, K"]], "data": [[["279.6", "0.5"]]], "components": [{"formula": "C<SUB>6</SUB>H<SUB>11</SUB>AlCl<SUB>4</SUB>N<SUB>2</SUB>", "name": "1-ethyl-3-methyl-1H-imidazolium tetrachloroaluminate", "idout": "ABBrIN", "sample": [["Source:", "synthesized by the authors"]], "mw": "279.95"}], "constr": ["Pressure of 1 atm"], "footer": "", "solvent": null, "expmeth": "DSC/DTA", "ref": {"title": "Enthalpies of solution of 1-ethyl-3-methyl-imidazolium chloride and aluminum  chloride in molten chloroaluminate ionic liquids", "full": "Keil, P.; Konig, A. (2011) Thermochim. Acta 524(1-2), 202-4."}, "title": "Phase transition properties: Normal melting temperature"}