{"solvent": null, "expmeth": "DSC/DTA", "footer": "", "title": "Phase transition properties: Normal melting temperature", "ref": {"full": "Kick, M.; Keil, P.; Konig, A. (2013) Fluid Phase Equilib. 338, 172-178.", "title": "Solid liquid phase diagram of the two Ionic Liquids EMIMCl and BMIMCl"}, "dhead": [["Normal melting temperature, K"]], "phases": ["Crystal", "Liquid"], "data": [[["342.95", "0.5"]]], "components": [{"mw": "174.67", "name": "1-butyl-3-methylimidazolium chloride", "sample": [["Source:", "commercial source"], ["Initial purification:", "stated by supplier"], ["Initial purity:", "98 mass %"], ["Final purification:", "Karl Fischer titration;Karl Fischer titration"], ["Final purity:", "0.1 water mass %;99.8 mass %(crystallization from solution;dried by vacuum heating)"]], "idout": "AAhedZ", "formula": "C<SUB>8</SUB>H<SUB>15</SUB>ClN<SUB>2</SUB>"}], "constr": ["Pressure of 1 atm"]}