{"dhead": [["Normal melting temperature, K"]], "phases": ["Crystal", "Liquid"], "data": [[["311.1", "1"]]], "constr": ["Pressure of 1 atm"], "components": [{"idout": "AATrxy", "sample": [["Source:", "synthesized by the authors"], ["Purification:", "estimated by the compiler"], ["Purity:", "97 % (basis not specified)(dried by oven heating)"]], "name": "1,1-dimethylhydrazinium azide", "formula": "C<SUB>2</SUB>H<SUB>9</SUB>N<SUB>5</SUB>", "mw": "103.13"}], "solvent": null, "expmeth": "Visual observation", "footer": "", "title": "Phase transition properties: Normal melting temperature", "ref": {"full": "Klapotke, T. M.; Noth, H.; Schwenk-Kircher, H.; Walther, W.-H.; Holl, G. (1999) Polyhedron 18, 717-719.", "title": "Synthesis and X-ray structure of 1,1-dimethylhydrazinium azide"}}