{"solvent": null, "expmeth": "Visual observation", "footer": "", "ref": {"full": "Krolikowska, M. (2014) Fluid Phase Equilib. 361, 273-281.", "title": "(Solid + liquid) and (liquid + liquid) phase equilibria of (IL + water) binary systems. The influence of the ionic liquid structure on mutual solubility"}, "title": "Phase transition properties: Normal melting temperature", "components": [{"mw": "291.33", "formula": "C<SUB>10</SUB>H<SUB>20</SUB>F<SUB>3</SUB>NO<SUB>3</SUB>S", "name": "1-butyl-1-methylpyrrolidinium trifluoromethanesulfonate", "idout": "ABEBJM", "sample": [["Source:", "commercial source"], ["Initial purification:", "stated by supplier"], ["Initial purity:", "99 mass %"], ["Final purification:", "Karl Fischer titration"], ["Final purity:", "99.96 mass %(dried by vacuum heating)"]]}], "constr": ["Pressure of 1 atm"], "dhead": [["Normal melting temperature, K"]], "phases": ["Crystal", "Liquid"], "data": [[["277.78", "0.17"]]]}