{"data": [[["263.85", "0.41"]]], "phases": ["Crystal 1", "Liquid"], "dhead": [["Normal melting temperature, K"]], "components": [{"mw": "201.23", "name": "1-ethyl-3-methyl-1H-imidazolium tricyanomethanide", "idout": "AAmkCR", "sample": [["Source:", "commercial source"], ["Initial purification:", "stated by supplier"], ["Initial purity:", "98 mass %"], ["Final purification:", "Karl Fischer titration"], ["Final purity:", "99.98 mass %(dried by vacuum heating)"]], "formula": "C<SUB>10</SUB>H<SUB>11</SUB>N<SUB>5</SUB>"}], "constr": ["Pressure of 1 atm"], "ref": {"full": "Krolikowska, M. (2014) Fluid Phase Equilib. 361, 273-281.", "title": "(Solid + liquid) and (liquid + liquid) phase equilibria of (IL + water) binary systems. The influence of the ionic liquid structure on mutual solubility"}, "title": "Phase transition properties: Normal melting temperature", "footer": "", "expmeth": "DSC/DTA", "solvent": null}