{"solvent": null, "expmeth": "Visual observation", "footer": "", "ref": {"full": "Krolikowska, M.; Lipinski, P.; Maik, D. (2014) Thermochim. Acta 582, 1-9.", "title": "Density, viscosity and phase equilibria study of {ethylsulfate - based ionic liquid + water} binary systems as a function of temperature and composition."}, "title": "Phase transition properties: Normal melting temperature", "dhead": [["Normal melting temperature, K"]], "phases": ["Crystal", "Liquid"], "data": [[["310.07", "0.5"]]], "components": [{"mw": "239.33", "sample": [["Source:", "commercial source"], ["Initial purification:", "stated by supplier"], ["Initial purity:", "97 mass %"], ["Final purification:", "Karl Fischer titration"], ["Final purity:", "0.12 water mass %(dried by vacuum heating)"]], "idout": "AAuBqM", "name": "1-ethyl-1-methylpyrrolidinium ethyl sulfate", "formula": "C<SUB>9</SUB>H<SUB>21</SUB>NO<SUB>4</SUB>S"}], "constr": ["Pressure of 1 atm"]}