{"dhead": [["Normal melting temperature, K"]], "phases": ["Crystal", "Liquid"], "data": [[["386", "4"]]], "components": [{"name": "cesium bis(fluorosulfonyl)amide", "sample": [["Source:", "synthesized by the authors"], ["Purification:", "estimated by the compiler"], ["Purity:", "99 mol %(crystallization from solution)"]], "idout": "ABIKSX", "formula": "CsF<SUB>2</SUB>NO<SUB>4</SUB>S<SUB>2</SUB>", "mw": "313.03"}], "constr": ["Pressure of 1 atm"], "expmeth": "DSC/DTA", "solvent": null, "footer": "", "title": "Phase transition properties: Normal melting temperature", "ref": {"full": "Kubota, K.; Nohira, T.; Hagiwara, R. (2010) J. Chem. Eng. Data 55(9), 3142-3146.", "title": "Thermal Properties of Alkali Bis(fluorosulfonyl)amides and Their Binary Mixtures"}}