{"components": [{"formula": "C<SUB>10</SUB>H<SUB>16</SUB>BF<SUB>4</SUB>N", "name": "1-butyl-2-methylpyridinium tetrafluoroborate", "idout": "AAteOb", "sample": [["Source:", "commercial source"], ["Purification:", "stated by supplier"], ["Purity:", "99 mol %"], ["Purity analysis:", "dried by vacuum heating"]], "mw": "237.05"}], "constr": ["Pressure of 1 atm"], "dhead": [["Normal melting temperature, K"]], "phases": ["Crystal", "Liquid"], "data": [[["301.3", "1.1"]]], "solvent": null, "expmeth": "DSC/DTA", "footer": "", "ref": {"full": "Bandres, I.; Pera, G.; Martin, S.; Castro, M.; Lafuente, C. (2009) J. Phys. Chem. B 113, 11936-11942.", "title": "Thermophysical Study of 1-Butyl-2-Methylpyridinium Tetrafluoroborate Ionic Liquid"}, "title": "Phase transition properties: Normal melting temperature"}