{"solvent": null, "expmeth": "Visual observation", "footer": "", "title": "Phase transition properties: Normal melting temperature", "ref": {"full": "Kumar, A. (1993) J. Am. Chem. Soc. 115, 9243-8.", "title": "Surface tension, viscosity, vapor pressure, density, and sound velocity for a system miscible continuously from a pure fused electrolyte to a nonaqueous liquid with a low dielectric constant: anisole"}, "constr": ["Pressure of 1 atm"], "components": [{"formula": "C<SUB>22</SUB>H<SUB>38</SUB>N<SUB>4</SUB>O<SUB>7</SUB>", "name": "1-butanaminium, N.N.N-tributyl-, salt with 2,4,6-trinitrophenol (1:1)", "sample": [["Source:", "synthesized by the authors"], ["Purification:", "estimated by the compiler"], ["Purity:", "98 % (basis not specified)"]], "idout": "ABmZEf", "mw": "470.57"}], "dhead": [["Normal melting temperature, K"]], "phases": ["Crystal", "Liquid"], "data": [[["363.85", "0.5"]]]}