{"constr": ["Pressure of 1 atm"], "components": [{"mw": "374.85", "formula": "C<SUB>24</SUB>H<SUB>20</SUB>ClP", "idout": "ABUETN", "sample": [["Source:", "commercial source"], ["Initial purification:", "stated by supplier"], ["Initial purity:", "99.0 mass %"], ["Final purification:", "fraction melting in an adiabatic calorimeter"], ["Final purity:", "99.5 mol %(dried by vacuum heating)"]], "name": "tetraphenylphosphonium chloride"}], "phases": ["Crystal", "Liquid"], "dhead": [["Normal melting temperature, K"]], "data": [[["549.65", "0.9"]]], "footer": "", "expmeth": "Visual observation", "solvent": null, "ref": {"full": "Kurzin, A. V.; Evdokimov, A. N.; Antipina, V. B.; Feofanova, M. A. (2016) J. Chem. Eng. Data 61(3), 1131-1135.", "title": "Isothermal Vapor Liquid Equilibrium Data for the Methanol + Benzene + Tetraphenylphosphonium Chloride System"}, "title": "Phase transition properties: Normal melting temperature"}