{"title": "Phase transition properties: Normal melting temperature", "ref": {"full": "Li, H.; Zhao, G.; Liu, F.; Zhang, S. (2013) J. Chem. Eng. Data 58(6), 1505-1515.", "title": "Physicochemical Characterization of MFm -Based Ammonium Ionic Liquids"}, "footer": "", "solvent": null, "expmeth": "DSC/DTA", "data": [[["361.45", "0.5"]]], "phases": ["Crystal 1", "Liquid"], "dhead": [["Normal melting temperature, K"]], "components": [{"mw": "359.38", "formula": "C<SUB>14</SUB>H<SUB>32</SUB>F<SUB>6</SUB>NP", "idout": "ABRFqt", "sample": [["Source:", "synthesized by the authors"], ["Purification:", "Karl Fischer titration;ion-selective electrode;NMR (proton)"], ["Purity:", "0.0086 water mass %;0.0078 halide impurity mass %;99 % (basis not specified)(dried by vacuum heating)"]], "name": "N,N,N-triethyl-N-octylammonium hexafluorophosphate"}], "constr": ["Pressure of 1 atm"]}