{"dhead": [["Normal melting temperature, K"]], "phases": ["Crystal", "Liquid"], "data": [[["344.55", "0.5"]]], "constr": ["Pressure of 1 atm"], "components": [{"mw": "217.06", "name": "tetraethylammonium tetrafluoroborate", "sample": [["Source:", "synthesized by the authors"], ["Purification:", "Karl Fischer titration;ion-selective electrode;NMR (proton)"], ["Purity:", "0.0149 water mass %;0.0073 halide impurity mass %;99 % (basis not specified)(dried by vacuum heating)"]], "idout": "AApmBi", "formula": "C<SUB>8</SUB>H<SUB>20</SUB>BF<SUB>4</SUB>N"}], "solvent": null, "expmeth": "DSC/DTA", "footer": "", "ref": {"full": "Li, H.; Zhao, G.; Liu, F.; Zhang, S. (2013) J. Chem. Eng. Data 58(6), 1505-1515.", "title": "Physicochemical Characterization of MFm -Based Ammonium Ionic Liquids"}, "title": "Phase transition properties: Normal melting temperature"}