{"footer": "", "solvent": null, "expmeth": "Visual observation", "ref": {"full": "Liu, Q.; Janssen, M. H. A.; Rantwijk, F. v.; Sheldon, R. A. (2005) Green Chem. 7(1), 39-42.", "title": "Room-temperature ionic liquids that dissolve carbohydrates in high concentrations"}, "title": "Phase transition properties: Normal melting temperature", "phases": ["Crystal", "Liquid"], "dhead": [["Normal melting temperature, K"]], "data": [[["341.1", "3"]]], "components": [{"mw": "272.13", "formula": "C<SUB>6</SUB>H<SUB>11</SUB>F<SUB>6</SUB>N<SUB>2</SUB>OP", "name": "1-(methoxymethyl)-3-methylimidazolium hexafluorophosphate", "sample": [["Source:", "synthesized by the authors"], ["Purification:", "estimated by the compiler"], ["Purity:", "97 mass %(dried with chemical reagent;dried by vacuum heating)"]], "idout": "ABARtl"}], "constr": ["Pressure of 1 atm"]}