{"components": [{"mw": "162.62", "name": "1-(methoxymethyl)-3-methylimidazolium chloride", "idout": "AAfOPR", "sample": [["Source:", "synthesized by the authors"], ["Purification:", "estimated by the compiler"], ["Purity:", "97 mass %(dried with chemical reagent;dried by vacuum heating)"]], "formula": "C<SUB>6</SUB>H<SUB>11</SUB>ClN<SUB>2</SUB>O"}], "constr": ["Pressure of 1 atm"], "dhead": [["Normal melting temperature, K"]], "phases": ["Crystal", "Liquid"], "data": [[["340.1", "3"]]], "solvent": null, "expmeth": "Visual observation", "footer": "", "ref": {"title": "Room-temperature ionic liquids that dissolve carbohydrates in high concentrations", "full": "Liu, Q.; Janssen, M. H. A.; Rantwijk, F. v.; Sheldon, R. A. (2005) Green Chem. 7(1), 39-42."}, "title": "Phase transition properties: Normal melting temperature"}