{"footer": "", "expmeth": "Visual observation", "solvent": null, "ref": {"title": "Room-temperature ionic liquids that dissolve carbohydrates in high concentrations", "full": "Liu, Q.; Janssen, M. H. A.; Rantwijk, F. v.; Sheldon, R. A. (2005) Green Chem. 7(1), 39-42."}, "title": "Phase transition properties: Normal melting temperature", "phases": ["Crystal", "Liquid"], "dhead": [["Normal melting temperature, K"]], "data": [[["340.1", "6"]]], "components": [{"mw": "176.64", "formula": "C<SUB>7</SUB>H<SUB>13</SUB>ClN<SUB>2</SUB>O", "sample": [["Source:", "synthesized by the authors"], ["Purification:", "estimated by the compiler"], ["Purity:", "97 mass %(dried with chemical reagent;dried by vacuum heating)"]], "idout": "AAhygp", "name": "1-(2-methoxyethyl)-3-methylimidazolium chloride"}], "constr": ["Pressure of 1 atm"]}