{"phases": ["Crystal", "Liquid"], "dhead": [["Normal melting temperature, K"]], "data": [[["299.1", "1"]]], "components": [{"mw": "416.35", "idout": "ABcDpl", "sample": [["Source:", "synthesized by the authors"], ["Purification:", "Karl Fischer titration"], ["Purity:", "0.089095 water mass %"]], "name": "1-butylpyridinium bis[(trifluoromethyl)sulfonyl]imide", "formula": "C<SUB>11</SUB>H<SUB>14</SUB>F<SUB>6</SUB>N<SUB>2</SUB>O<SUB>4</SUB>S<SUB>2</SUB>"}], "constr": ["Pressure of 1 atm"], "footer": "", "solvent": null, "expmeth": "DSC/DTA", "ref": {"title": "Density and Surface Tension of Ionic Liquids [Cnpy][NTf2] (n = 2, 4,  5)", "full": "Liu, Q.-S.; Yang, M.; Yan, P.-F.; Liu, X.-M.; Tan, Z.-C.; Welz-Biermann, U. (2010) J. Chem. Eng. Data 55(11), 4928-4930."}, "title": "Phase transition properties: Normal melting temperature"}