{"components": [{"formula": "C<SUB>9</SUB>H<SUB>10</SUB>F<SUB>6</SUB>N<SUB>2</SUB>O<SUB>4</SUB>S<SUB>2</SUB>", "sample": [["Source:", "synthesized by the authors"], ["Purification:", "Karl Fischer titration"], ["Purity:", "0.076955 water mass %"]], "idout": "ABWiAS", "name": "1-ethylpyridinium bis[(trifluoromethyl)sulfonyl]imide", "mw": "388.30"}], "constr": ["Pressure of 1 atm"], "dhead": [["Normal melting temperature, K"]], "phases": ["Crystal 1", "Liquid"], "data": [[["303.6", "1"]]], "solvent": null, "expmeth": "DSC/DTA", "footer": "", "ref": {"full": "Liu, Q.-S.; Yang, M.; Yan, P.-F.; Liu, X.-M.; Tan, Z.-C.; Welz-Biermann, U. (2010) J. Chem. Eng. Data 55(11), 4928-4930.", "title": "Density and Surface Tension of Ionic Liquids [Cnpy][NTf2] (n = 2, 4,  5)"}, "title": "Phase transition properties: Normal melting temperature"}