{"footer": "", "solvent": null, "expmeth": "DSC/DTA", "title": "Phase transition properties: Normal melting temperature", "ref": {"full": "Berger, B.; Bircher, H. (2005) Propellants Explos. Pyrotech. 30(3), 184-190.", "title": "Alkali Dinitramide Salts. Part 1: Synthesis and Characterization"}, "phases": ["Crystal", "Liquid"], "dhead": [["Normal melting temperature, K"]], "data": [[["362.1", "1"]]], "components": [{"mw": "238.92", "formula": "CsN<SUB>3</SUB>O<SUB>4</SUB>", "name": "cesium dinitramide", "sample": [["Source:", "synthesized by the authors"], ["Purity analysis:", "crystallization from solution"]], "idout": "AAtxaG"}], "constr": ["Pressure of 1 atm"]}