{"dhead": [["Normal melting temperature, K"]], "phases": ["Crystal", "Liquid"], "data": [[["361.1", "2"]]], "components": [{"formula": "C<SUB>28</SUB>H<SUB>60</SUB>BrN", "name": "1-heptanaminium, N,N,N-triheptyl-, bromide", "sample": [["Source:", "commercial source"], ["Purification:", "stated by supplier"], ["Purity:", "99 mass %"]], "idout": "ABqSaU", "mw": "490.70"}], "constr": ["Pressure of 1 atm"], "solvent": null, "expmeth": "Visual observation", "footer": "", "title": "Phase transition properties: Normal melting temperature", "ref": {"title": "Phase equilibria and diffusion behavior of high pressure CO2intetra-n-heptyl ammonium bromide", "full": "Ma, G.; Zhou, Y.; Su, T.; Wei, W.; Gong, Y.; Hu, X.; Hong, Y.; Su, Y.; Wang, H.; Lia, J. (2016) J. Supercrit. Fluids 107, 370-376."}}