{"title": "Phase transition properties: Normal melting temperature", "ref": {"title": "Pyrrolidinium Imides: A New Family of Molten Salts and Conductive Plastic Crystal Phases", "full": "MacFarlane, D. R.; Meakin, P.; Sun, J.; Amini, N.; Forsyth, M. (1999) J. Phys. Chem. B 103, 4164-4170."}, "solvent": null, "expmeth": "DSC/DTA", "footer": "", "components": [{"formula": "C<SUB>9</SUB>H<SUB>16</SUB>F<SUB>6</SUB>N<SUB>2</SUB>O<SUB>4</SUB>S<SUB>2</SUB>", "idout": "ABXrew", "sample": [["Source:", "synthesized by the authors"], ["Purity analysis:", "dried by vacuum heating"]], "name": "1-ethyl-1-methylpyrrolidinium bis[(trifluoromethyl)sulfonyl]imide", "mw": "394.35"}], "constr": ["Pressure of 1 atm"], "data": [[["359.1", "4"]]], "dhead": [["Normal melting temperature, K"]], "phases": ["Crystal 1", "Liquid"]}