{"data": [[["389.3", "0.2"]]], "phases": ["Crystal 1", "Liquid"], "dhead": [["Normal melting temperature, K"]], "constr": ["Pressure of 1 atm"], "components": [{"mw": "543.11", "formula": "C<SUB>20</SUB>H<SUB>38</SUB>HgO<SUB>4</SUB>", "idout": "ACAXGB", "sample": [["Source:", "synthesized by the authors"], ["Purification:", "spectroscopy"], ["Purity analysis:", "chemical reagent treatment"]], "name": "decanoic acid, mercuric salt"}], "ref": {"full": "Adeosun, S. O. (1978) J. Therm. Anal. 14, 235-43.", "title": "A differential thermal analysis study of phase transitions in some mercury(II) carboxylates"}, "title": "Phase transition properties: Normal melting temperature", "footer": "", "solvent": null, "expmeth": ""}