{"footer": "", "solvent": null, "expmeth": "DSC/DTA", "title": "Phase transition properties: Normal melting temperature", "ref": {"full": "MacFarlane, D. R.; Meakin, P.; Amini, N.; Forsyth, M. (2001) J. Phys.: Condens. Matter 13, 8257-8267.", "title": "Structural studies of ambient temperature plastic crystal ion conductors"}, "components": [{"mw": "450.46", "formula": "C<SUB>13</SUB>H<SUB>24</SUB>F<SUB>6</SUB>N<SUB>2</SUB>O<SUB>4</SUB>S<SUB>2</SUB>", "name": "1-hexyl-1-methylpyrrolidinium bis(trifluoromethanesulfonyl)imide", "sample": [["Source:", "synthesized by the authors"], ["Purity analysis:", "dried by vacuum heating"]], "idout": "ABigsj"}], "constr": ["Pressure of 1 atm"], "phases": ["Crystal", "Liquid"], "dhead": [["Normal melting temperature, K"]], "data": [[["276.1", "4"]]]}