{"phases": ["Crystal", "Liquid"], "dhead": [["Normal melting temperature, K"]], "data": [[["263.1", "4"]]], "components": [{"formula": "C<SUB>9</SUB>H<SUB>18</SUB>F<SUB>6</SUB>N<SUB>2</SUB>O<SUB>4</SUB>S<SUB>2</SUB>", "idout": "ABYLIN", "sample": [["Source:", "synthesized by the authors"], ["Purity analysis:", "dried by vacuum heating"]], "name": "N-ethyl-N,N-dimethyl-1-propanaminium 1,1,1-trifluoro-N-[(trifluoromethyl)sulfonyl]methanesulfonamide", "mw": "396.36"}], "constr": ["Pressure of 1 atm"], "footer": "", "expmeth": "DSC/DTA", "solvent": null, "title": "Phase transition properties: Normal melting temperature", "ref": {"title": "Structural studies of ambient temperature plastic crystal ion conductors", "full": "MacFarlane, D. R.; Meakin, P.; Amini, N.; Forsyth, M. (2001) J. Phys.: Condens. Matter 13, 8257-8267."}}