{"phases": ["Metastable crystal", "Liquid"], "dhead": [["Normal melting temperature, K"]], "data": [[["257.1", "2"]]], "components": [{"mw": "391.30", "formula": "C<SUB>8</SUB>H<SUB>11</SUB>F<SUB>6</SUB>N<SUB>3</SUB>O<SUB>4</SUB>S<SUB>2</SUB>", "idout": "ABXNPV", "sample": [["Source:", "synthesized by the authors"], ["Purity analysis:", "dried by vacuum heating"]], "name": "1-ethyl-3-methylimidazolium bis[(trifluoromethyl)sulfonyl]imide"}], "constr": ["Pressure of 1 atm"], "footer": "", "solvent": null, "expmeth": "DSC/DTA", "ref": {"title": "Structural studies of ambient temperature plastic crystal ion conductors", "full": "MacFarlane, D. R.; Meakin, P.; Amini, N.; Forsyth, M. (2001) J. Phys.: Condens. Matter 13, 8257-8267."}, "title": "Phase transition properties: Normal melting temperature"}