{"expmeth": "DSC/DTA", "solvent": null, "footer": "", "ref": {"title": "Structural studies of ambient temperature plastic crystal ion conductors", "full": "MacFarlane, D. R.; Meakin, P.; Amini, N.; Forsyth, M. (2001) J. Phys.: Condens. Matter 13, 8257-8267."}, "title": "Phase transition properties: Normal melting temperature", "dhead": [["Normal melting temperature, K"]], "phases": ["Crystal 1", "Liquid"], "data": [[["281.1", "4"]]], "constr": ["Pressure of 1 atm"], "components": [{"formula": "C<SUB>12</SUB>H<SUB>22</SUB>F<SUB>6</SUB>N<SUB>2</SUB>O<SUB>4</SUB>S<SUB>2</SUB>", "name": "1-pentyl-1-methylpyrrolidinium 1,1,1-trifluoro-N-[(trifluoromethyl)sulfonyl]methanesulfonamide", "idout": "ABfwhu", "sample": [["Source:", "synthesized by the authors"], ["Purity analysis:", "dried by vacuum heating"]], "mw": "436.43"}]}