{"constr": ["Pressure of 1 atm"], "components": [{"name": "1-ethyl-1-methylpyrrolidinium bis[(trifluoromethyl)sulfonyl]imide", "idout": "ABXrew", "sample": [["Source:", "synthesized by the authors"], ["Purity analysis:", "dried by vacuum heating"]], "formula": "C<SUB>9</SUB>H<SUB>16</SUB>F<SUB>6</SUB>N<SUB>2</SUB>O<SUB>4</SUB>S<SUB>2</SUB>", "mw": "394.35"}], "data": [[["361.1", "4"]]], "dhead": [["Normal melting temperature, K"]], "phases": ["Crystal 1", "Liquid"], "title": "Phase transition properties: Normal melting temperature", "ref": {"full": "MacFarlane, D. R.; Meakin, P.; Amini, N.; Forsyth, M. (2001) J. Phys.: Condens. Matter 13, 8257-8267.", "title": "Structural studies of ambient temperature plastic crystal ion conductors"}, "solvent": null, "expmeth": "DSC/DTA", "footer": ""}