{"components": [{"mw": "403.69", "idout": "ABZgSQ", "sample": [["Source:", "synthesized by the authors"], ["Purification:", "chemical analysis;spectroscopy"]], "name": "lauric acid, thallium(1+) salt", "formula": "C<SUB>12</SUB>H<SUB>23</SUB>O<SUB>2</SUB>Tl"}], "constr": ["Pressure of 1 atm"], "phases": ["Crystal 1", "Liquid"], "dhead": [["Normal melting temperature, K"]], "data": [[["398", "1"]]], "footer": "", "solvent": null, "expmeth": "", "title": "Phase transition properties: Normal melting temperature", "ref": {"title": "Thermal behavior of thallium(I) fatty acid salts. I.", "full": "Meisel, T.; Seybold, K.; Halmos, Z.; Roth, J.; Melykuti, C. (1976) J. Therm. Anal. 10, 419-31."}}