{"phases": ["Crystal 1", "Liquid"], "dhead": [["Normal melting temperature, K"]], "data": [[["279.2", "1.1"]]], "constr": ["Pressure of 1 atm"], "components": [{"mw": "398.34", "idout": "ABYfZB", "sample": [["Source:", "synthesized by others"], ["Initial purification:", "stated by supplier"], ["Initial purity:", "98 mass %"], ["Final purification:", "Karl Fischer titration"], ["Final purity:", "0.03 water mass %"]], "name": "ethyl(2-hydroxyethyl)dimethylammonium bis{(trifluomethyl)sulfonyl}imide", "formula": "C<SUB>8</SUB>H<SUB>16</SUB>F<SUB>6</SUB>N<SUB>2</SUB>O<SUB>5</SUB>S<SUB>2</SUB>"}], "footer": "", "expmeth": "DSC/DTA", "solvent": null, "ref": {"full": "Melo, C. I.; Bogel-Lukasik, R.; Nunes da Ponte, M.; Bogel-Lukasik, E. (2013) Fluid Phase Equilib. 338, 209-216.", "title": "Ammonium ionic liquids as green solvents for drugs"}, "title": "Phase transition properties: Normal melting temperature"}