{"dhead": [["Normal melting temperature, K"]], "phases": ["Crystal", "Liquid"], "data": [[["304.8", "1.1"]]], "components": [{"formula": "C<SUB>22</SUB>H<SUB>48</SUB>N<SUB>2</SUB>O<SUB>3</SUB>", "sample": [["Source:", "synthesized by others"], ["Initial purification:", "stated by supplier"], ["Initial purity:", "98 mass %"], ["Final purification:", "Karl Fischer titration"], ["Final purity:", "0.025 water mass %"]], "idout": "ABWmiN", "name": "Didecyldimethylammonium nitrate", "mw": "388.64"}], "constr": ["Pressure of 1 atm"], "expmeth": "DSC/DTA", "solvent": null, "footer": "", "title": "Phase transition properties: Normal melting temperature", "ref": {"full": "Melo, C. I.; Bogel-Lukasik, R.; Nunes da Ponte, M.; Bogel-Lukasik, E. (2013) Fluid Phase Equilib. 338, 209-216.", "title": "Ammonium ionic liquids as green solvents for drugs"}}