{"solvent": null, "expmeth": "Visual observation", "footer": "", "ref": {"full": "Miao, W.; Chan, T. H. (2003) Org. Lett. 5(26), 5003-5005.", "title": "Exploration of Ionic Liquids as Soluble Supports for Organic Synthesis. Demonstration with a Suzuki Coupling Reaction"}, "title": "Phase transition properties: Normal melting temperature", "dhead": [["Normal melting temperature, K"]], "phases": ["Crystal", "Liquid"], "data": [[["350.6", "3"]]], "constr": ["Pressure of 1 atm"], "components": [{"idout": "ABhTta", "sample": [["Source:", "synthesized by the authors"], ["Purification:", "estimated by the compiler"], ["Purity:", "97 mass %"]], "name": "3-m-iodobenzoyloxyethyl-1-methylimidazolium tetrafluoroborate", "formula": "C<SUB>13</SUB>H<SUB>14</SUB>BF<SUB>4</SUB>IN<SUB>2</SUB>O<SUB>2</SUB>", "mw": "443.98"}]}