{"ref": {"full": "Miao, W.; Chan, T. H. (2003) Org. Lett. 5(26), 5003-5005.", "title": "Exploration of Ionic Liquids as Soluble Supports for Organic Synthesis. Demonstration with a Suzuki Coupling Reaction"}, "title": "Phase transition properties: Normal melting temperature", "footer": "", "expmeth": "Visual observation", "solvent": null, "data": [[["387.1", "2"]]], "phases": ["Crystal", "Liquid"], "dhead": [["Normal melting temperature, K"]], "constr": ["Pressure of 1 atm"], "components": [{"name": "3-p-iodobenzoyloxyethyl-1-methylimidazolium tetrafluoroborate", "idout": "ABhTJJ", "sample": [["Source:", "synthesized by the authors"], ["Purification:", "estimated by the compiler"], ["Purity:", "97 mass %"]], "formula": "C<SUB>13</SUB>H<SUB>14</SUB>BF<SUB>4</SUB>IN<SUB>2</SUB>O<SUB>2</SUB>", "mw": "443.98"}]}