{"footer": "", "solvent": null, "expmeth": "Visual observation", "ref": {"full": "Mod, R. R.; Harris, J. A.; Skau, E. L. (1967) J. Chem. Eng. Data 12(1), 108-110.", "title": "Solubilities of the Cyclohexylamine Salts of the Odd and Even Normal CIO to CZO Fatty Acids in Benzene, Methanol, and Acetone"}, "title": "Phase transition properties: Normal melting temperature", "phases": ["Crystal", "Liquid"], "dhead": [["Normal melting temperature, K"]], "data": [[["366.15", "0.5"]]], "constr": ["Pressure of 1 atm"], "components": [{"mw": "383.66", "formula": "C<SUB>24</SUB>H<SUB>49</SUB>NO<SUB>2</SUB>", "idout": "ABVocm", "sample": [["Source:", "synthesized by the authors"], ["Purity analysis:", "crystallization from solution"]], "name": "octadecanoic acid cyclohexanamine salt (1:1)"}]}