{"phases": ["Crystal", "Liquid"], "dhead": [["Normal melting temperature, K"]], "data": [[["363.95", "0.5"]]], "components": [{"mw": "369.63", "formula": "C<SUB>23</SUB>H<SUB>47</SUB>NO<SUB>2</SUB>", "idout": "ABTEpH", "sample": [["Source:", "synthesized by the authors"], ["Purity analysis:", "crystallization from solution"]], "name": "heptadecanoic acid cyclohexanamine salt (1:1)"}], "constr": ["Pressure of 1 atm"], "footer": "", "expmeth": "Visual observation", "solvent": null, "ref": {"title": "Solubilities of the Cyclohexylamine Salts of the Odd and Even Normal CIO to CZO Fatty Acids in Benzene, Methanol, and Acetone", "full": "Mod, R. R.; Harris, J. A.; Skau, E. L. (1967) J. Chem. Eng. Data 12(1), 108-110."}, "title": "Phase transition properties: Normal melting temperature"}