{"ref": {"full": "Morais, A. R. C.; Lopes, A. M. d. C.; Bogel-Lukasik, E.; Bogel-Lukasik, R. (2013) Ind. Eng. Chem. Res. 52, 14722-14726.", "title": "Ionic Liquids  Cation and Anion Influence on Aromatic Amine Solubility"}, "title": "Phase transition properties: Normal melting temperature", "footer": "", "solvent": null, "expmeth": "Visual observation", "data": [[["341.9", "1.6"]]], "phases": ["Crystal", "Liquid"], "dhead": [["Normal melting temperature, K"]], "components": [{"mw": "174.67", "formula": "C<SUB>8</SUB>H<SUB>15</SUB>ClN<SUB>2</SUB>", "idout": "AAhedZ", "sample": [["Source:", "commercial source"], ["Initial purification:", "stated by supplier"], ["Initial purity:", "99 mass %"], ["Final purification:", "Karl Fischer titration"], ["Final purity:", "0.00039 water mass %(dried by vacuum heating)"]], "name": "1-butyl-3-methylimidazolium chloride"}], "constr": ["Pressure of 1 atm"]}