{"solvent": null, "expmeth": "Visual observation", "footer": "", "ref": {"title": "Calorimetric Studies and Structural Aspects of Ionic Liquids in Designing Sorption Materials for Thermal Energy Storage", "full": "Brunig, T.; Krekic, K.; Bruhn, C.; Pietschnig, R. (2016) Chem. Eur. J. 22(45), 16200-16212."}, "title": "Phase transition properties: Normal melting temperature", "dhead": [["Normal melting temperature, K"]], "phases": ["Crystal", "Liquid"], "data": [[["345.1", "1"]]], "components": [{"formula": "C<SUB>6</SUB>H<SUB>11</SUB>BrN<SUB>2</SUB>", "name": "1-ethyl-3-methylimidazolium bromide", "idout": "AAkmJl", "sample": [["Source:", "synthesized by the authors"], ["Purification:", "estimated by the compiler"], ["Purity:", "98 mass %"]], "mw": "191.07"}], "constr": ["Pressure of 1 atm"]}