{"constr": ["Pressure of 1 atm"], "components": [{"mw": "37.04", "name": "ammonium fluoride", "idout": "AAHGcO", "sample": [["Source:", "commercial source"], ["Purification:", "stated by supplier"], ["Purity:", "97 % (basis not specified)"]], "formula": "FH<SUB>4</SUB>N"}], "dhead": [["Normal melting temperature, K"]], "phases": ["Crystal", "Liquid"], "data": [[["383.1", "1"]]], "solvent": null, "expmeth": "DSC/DTA", "footer": "", "title": "Phase transition properties: Normal melting temperature", "ref": {"full": "Mukherjee, A.; Awasthi, A.; Mishra, S.; Krishnamurthy, N. (2011) Thermochim. Acta 520(1-2), 145-52.", "title": "Studies on fluorination of Y2O3 by NH4HF2"}}