{"footer": "", "expmeth": "", "solvent": null, "ref": {"title": "DSC determination of the fusion and sublimation enthalpy of bis(2,4-pentanedionato)beryllium(II) and tris(2,4-pentanedionato)aluminium(III)", "full": "Murray, J. P.; Hill, J. O. (1983) Thermochim. Acta 63(2), 211-218."}, "title": "Phase transition properties: Normal melting temperature", "components": [{"formula": "C<SUB>10</SUB>H<SUB>14</SUB>BeO<SUB>4</SUB>", "name": "(t-4)-bis(2,4-pentanedionato-O,O')beryllium", "sample": [["Source:", "synthesized by the authors"], ["Purification:", "chemical analysis"], ["Purity analysis:", "crystallization from solution"]], "idout": "AAnsiH", "mw": "207.23"}], "constr": ["Pressure of 1 atm"], "phases": ["Crystal", "Liquid"], "dhead": [["Normal melting temperature, K"]], "data": [[["381.1", "1"]]]}