{"phases": ["Crystal", "Liquid"], "dhead": [["Normal melting temperature, K"]], "data": [[["252.3", "0.5"]]], "constr": ["Pressure of 1 atm"], "components": [{"mw": "613.72", "formula": "C<SUB>24</SUB>H<SUB>41</SUB>F<SUB>6</SUB>N<SUB>3</SUB>O<SUB>4</SUB>S<SUB>2</SUB>", "idout": "ACOBmN", "sample": [["Source:", "synthesized by the authors"], ["Purification:", "NMR (proton);Karl Fischer titration;NMR (proton)"], ["Purity:", "98 mol %;0.23 water mass %;0.34 halide impurity mass %(dried by vacuum heating)"]], "name": "1-oleyl-3-methylimidazolium bis(trifluoromethanesulfonyl)imide"}], "footer": "", "expmeth": "DSC/DTA", "solvent": null, "title": "Phase transition properties: Normal melting temperature", "ref": {"title": "Thermophysical Properties of Imidazolium-Based Lipidic Ionic Liquids", "full": "Murray, S. M.; Zimlich, T. K.; Mirjafari, A.; O'Brien, R. A.; Davis Jr., J. H.; West, K. N. (2013) J. Chem. Eng. Data 58(6), 1516-1522."}}