{"footer": "", "expmeth": "DSC/DTA", "solvent": null, "ref": {"title": "Thermophysical Properties of Imidazolium-Based Lipidic Ionic Liquids", "full": "Murray, S. M.; Zimlich, T. K.; Mirjafari, A.; O'Brien, R. A.; Davis Jr., J. H.; West, K. N. (2013) J. Chem. Eng. Data 58(6), 1516-1522."}, "title": "Phase transition properties: Normal melting temperature", "phases": ["Crystal", "Liquid"], "dhead": [["Normal melting temperature, K"]], "data": [[["289.2", "0.5"]]], "constr": ["Pressure of 1 atm"], "components": [{"name": "1-methyl-3-(9E)-9-octadecen-1-yl-1H-Imidazolium 1,1,1-trifluoro-N-[(trifluoromethyl)sulfonyl]methanesulfonamide", "sample": [["Source:", "synthesized by the authors"], ["Purification:", "NMR (proton);Karl Fischer titration;NMR (proton)"], ["Purity:", "98 mol %;0.45 water mass %;0.03 halide impurity mass %(dried by vacuum heating)"]], "idout": "ACOBZq", "formula": "C<SUB>24</SUB>H<SUB>41</SUB>F<SUB>6</SUB>N<SUB>3</SUB>O<SUB>4</SUB>S<SUB>2</SUB>", "mw": "613.72"}]}