{"footer": "", "expmeth": "DSC/DTA", "solvent": null, "ref": {"full": "Neale, A. R.; Schutter, C.; Wilde, P.; Goodrich, P.; Hardacre, C.; Passerini, S.; Balducci, A.; Jacquemin, J. (2017) J. Chem. Eng. Data 62(1), 376-390.", "title": "Physical Chemical Characterization of Binary Mixtures of 1-Butyl-1-methylpyrrolidinium Bis{(trifluoromethyl)sulfonyl}imide and Aliphatic Nitrile Solvents as Potential Electrolytes for Electrochemical Energy Storage Applications"}, "title": "Phase transition properties: Normal melting temperature", "phases": ["Metastable crystal", "Liquid"], "dhead": [["Normal melting temperature, K"]], "data": [[["253", "2"]]], "constr": ["Pressure of 1 atm"], "components": [{"mw": "422.40", "name": "1-butyl-1-methylpyrrolidinium bis[(trifluoromethyl)sulfonyl]imide", "idout": "ABdMuP", "sample": [["Source:", "synthesized by the authors"], ["Initial purification:", "NMR (proton)"], ["Initial purity:", "99.0 mol %"], ["Final purification:", "Karl Fischer titration"], ["Final purity:", "0.015 water mass %"]], "formula": "C<SUB>11</SUB>H<SUB>20</SUB>F<SUB>6</SUB>N<SUB>2</SUB>O<SUB>4</SUB>S<SUB>2</SUB>"}]}