{"data": [[["341.9", "2"]]], "phases": ["Crystal", "Liquid"], "dhead": [["Normal melting temperature, K"]], "constr": ["Pressure of 1 atm"], "components": [{"mw": "174.67", "formula": "C<SUB>8</SUB>H<SUB>15</SUB>ClN<SUB>2</SUB>", "name": "1-butyl-3-methylimidazolium chloride", "sample": [["Source:", "commercial source"], ["Purification:", "stated by supplier"], ["Purity:", "98 % (basis not specified)"]], "idout": "AAhedZ"}], "ref": {"full": "Nemoto, F.; Kofu, M.; Yamamuro, O. (2015) J. Phys. Chem. B 119(15), 5028-5034.", "title": "Thermal and Structural Studies of Imidazolium-Based Ionic Liquids with and without Liquid-Crystalline Phases: The Origin of Nanostructure"}, "title": "Phase transition properties: Normal melting temperature", "footer": "", "solvent": null, "expmeth": "DSC/DTA"}