{"components": [{"mw": "273.20", "formula": "C<SUB>8</SUB>H<SUB>18</SUB>F<SUB>6</SUB>NP", "idout": "ABActm", "sample": [["Source:", "commercial source"], ["Purification:", "stated by supplier"], ["Purity:", "99 mass %"]], "name": "1-methyl-1-propylpyrrolidinium hexafluorophosphate"}], "constr": ["Pressure of 1 atm"], "data": [[["383.6", "1.4"]]], "dhead": [["Normal melting temperature, K"]], "phases": ["Crystal 1", "Liquid"], "ref": {"full": "Neves, C. M. S. S.; Rodrigues, A. R.; Kurnia, K. A.; Esperanca, J. M. S. S.; Freire, M. G.; Coutinho, J. A. P. (2013) Fluid Phase Equilib. 358, 50-55.", "title": "Solubility of non-aromatic hexafluorophosphate-based salts and ionic liquids in water determined by electrical conductivity"}, "title": "Phase transition properties: Normal melting temperature", "expmeth": "DSC/DTA", "solvent": null, "footer": ""}