{"data": [[["498.6", "0.4"]]], "phases": ["Crystal 1", "Liquid"], "dhead": [["Normal melting temperature, K"]], "constr": ["Pressure of 1 atm"], "components": [{"idout": "ABZoLk", "sample": [["Source:", "commercial source"], ["Purification:", "stated by supplier"], ["Purity:", "99 mass %"]], "name": "tetrabutylphosphonium hexafluorophosphate", "formula": "C<SUB>16</SUB>H<SUB>36</SUB>F<SUB>6</SUB>P<SUB>2</SUB>", "mw": "404.40"}], "title": "Phase transition properties: Normal melting temperature", "ref": {"full": "Neves, C. M. S. S.; Rodrigues, A. R.; Kurnia, K. A.; Esperanca, J. M. S. S.; Freire, M. G.; Coutinho, J. A. P. (2013) Fluid Phase Equilib. 358, 50-55.", "title": "Solubility of non-aromatic hexafluorophosphate-based salts and ionic liquids in water determined by electrical conductivity"}, "footer": "", "solvent": null, "expmeth": "DSC/DTA"}