{"constr": ["Pressure of 1 atm"], "components": [{"mw": "405.33", "formula": "C<SUB>9</SUB>H<SUB>13</SUB>F<SUB>6</SUB>N<SUB>3</SUB>O<SUB>4</SUB>S<SUB>2</SUB>", "sample": [["Source:", "synthesized by the authors"], ["Purification:", "estimated by the compiler"], ["Purity:", "97 % (basis not specified)(dried by oven heating)"]], "idout": "ABZxaZ", "name": "1-methyl-3-(1-methylethyl)imidazolium bis[(trifluoromethyl)sulfonyl]imide"}], "phases": ["Crystal", "Liquid"], "dhead": [["Normal melting temperature, K"]], "data": [[["289.1", "2"]]], "footer": "", "expmeth": "DSC/DTA", "solvent": null, "ref": {"title": "Thermal properties of imidazolium ionic liquids", "full": "Ngo, H. L.; LeCompte, K.; Hargens, L.; McEwen, A. B. (2000) Thermochim. Acta 357-358, 97-102."}, "title": "Phase transition properties: Normal melting temperature"}