{"solvent": null, "expmeth": "DSC/DTA", "footer": "", "title": "Phase transition properties: Normal melting temperature", "ref": {"full": "Ngo, H. L.; LeCompte, K.; Hargens, L.; McEwen, A. B. (2000) Thermochim. Acta 357-358, 97-102.", "title": "Thermal properties of imidazolium ionic liquids"}, "dhead": [["Normal melting temperature, K"]], "phases": ["Crystal", "Liquid"], "data": [[["345.1", "2"]]], "constr": ["Pressure of 1 atm"], "components": [{"mw": "217.06", "formula": "C<SUB>8</SUB>H<SUB>20</SUB>BF<SUB>4</SUB>N", "sample": [["Source:", "synthesized by the authors"], ["Purification:", "estimated by the compiler"], ["Purity:", "97 % (basis not specified)(dried by oven heating)"]], "idout": "AApmBi", "name": "tetraethylammonium tetrafluoroborate"}]}