{"components": [{"mw": "205.10", "idout": "AAnWoF", "sample": [["Source:", "synthesized by the authors"], ["Purification:", "estimated by the compiler"], ["Purity:", "97 % (basis not specified)(dried by oven heating)"]], "name": "1-ethyl-2,3-dimethylimidazolium bromide", "formula": "C<SUB>7</SUB>H<SUB>13</SUB>BrN<SUB>2</SUB>"}], "constr": ["Pressure of 1 atm"], "phases": ["Crystal", "Liquid"], "dhead": [["Normal melting temperature, K"]], "data": [[["414.1", "2"]]], "footer": "", "solvent": null, "expmeth": "DSC/DTA", "ref": {"full": "Ngo, H. L.; LeCompte, K.; Hargens, L.; McEwen, A. B. (2000) Thermochim. Acta 357-358, 97-102.", "title": "Thermal properties of imidazolium ionic liquids"}, "title": "Phase transition properties: Normal melting temperature"}