{"solvent": null, "expmeth": "Visual observation", "footer": "", "title": "Phase transition properties: Normal melting temperature", "ref": {"full": "Brunig, T.; Krekic, K.; Bruhn, C.; Pietschnig, R. (2016) Chem. Eur. J. 22(45), 16200-16212.", "title": "Calorimetric Studies and Structural Aspects of Ionic Liquids in Designing Sorption Materials for Thermal Energy Storage"}, "components": [{"mw": "186.21", "formula": "C<SUB>8</SUB>H<SUB>14</SUB>N<SUB>2</SUB>O<SUB>3</SUB>", "name": "1-(2-hydroxyethyl)-3-methylimidazolium acetate", "sample": [["Source:", "synthesized by the authors"], ["Purification:", "estimated by the compiler;Karl Fischer titration"], ["Purity:", "98 mass %;0.0985 water mass %"]], "idout": "AAjqfS"}], "constr": ["Pressure of 1 atm"], "dhead": [["Normal melting temperature, K"]], "phases": ["Crystal", "Liquid"], "data": [[["330.1", "1"]]]}