{"expmeth": "DSC/DTA", "solvent": null, "footer": "", "ref": {"full": "Ngo, H. L.; LeCompte, K.; Hargens, L.; McEwen, A. B. (2000) Thermochim. Acta 357-358, 97-102.", "title": "Thermal properties of imidazolium ionic liquids"}, "title": "Phase transition properties: Normal melting temperature", "dhead": [["Normal melting temperature, K"]], "phases": ["Crystal", "Liquid"], "data": [[["319.1", "2"]]], "constr": ["Pressure of 1 atm"], "components": [{"formula": "C<SUB>12</SUB>H<SUB>20</SUB>F<SUB>9</SUB>NO<SUB>6</SUB>S<SUB>3</SUB>", "idout": "ACAGZZ", "sample": [["Source:", "synthesized by the authors"], ["Purification:", "estimated by the compiler"], ["Purity:", "97 % (basis not specified)(dried by oven heating)"]], "name": "tetraethylammonium tris[(trifluoromethyl)sulfonyl]methide", "mw": "541.46"}]}