{"footer": "", "expmeth": "DSC/DTA", "solvent": null, "ref": {"title": "Thermal properties of imidazolium ionic liquids", "full": "Ngo, H. L.; LeCompte, K.; Hargens, L.; McEwen, A. B. (2000) Thermochim. Acta 357-358, 97-102."}, "title": "Phase transition properties: Normal melting temperature", "constr": ["Pressure of 1 atm"], "components": [{"name": "tetrabutylammonium tris[(trifluoromethyl)sulfonyl]methide", "idout": "ACVkfg", "sample": [["Source:", "synthesized by the authors"], ["Purification:", "estimated by the compiler"], ["Purity:", "97 % (basis not specified)(dried by oven heating)"]], "formula": "C<SUB>20</SUB>H<SUB>36</SUB>F<SUB>9</SUB>NO<SUB>6</SUB>S<SUB>3</SUB>", "mw": "653.67"}], "phases": ["Crystal", "Liquid"], "dhead": [["Normal melting temperature, K"]], "data": [[["332.1", "2"]]]}