{"ref": {"full": "Ngo, H. L.; LeCompte, K.; Hargens, L.; McEwen, A. B. (2000) Thermochim. Acta 357-358, 97-102.", "title": "Thermal properties of imidazolium ionic liquids"}, "title": "Phase transition properties: Normal melting temperature", "footer": "", "solvent": null, "expmeth": "DSC/DTA", "data": [[["312.1", "2"]]], "phases": ["Crystal", "Liquid"], "dhead": [["Normal melting temperature, K"]], "components": [{"mw": "524.39", "formula": "C<SUB>10</SUB>H<SUB>13</SUB>F<SUB>9</SUB>N<SUB>2</SUB>O<SUB>6</SUB>S<SUB>3</SUB>", "name": "1-ethyl-3-methyl-2,3-dihydro-1H-imidazol-1-ium tris[(trifluoromethyl)sulfonyl]methanide", "idout": "ABwrwK", "sample": [["Source:", "synthesized by the authors"], ["Purification:", "estimated by the compiler"], ["Purity:", "97 % (basis not specified)(dried by oven heating)"]]}], "constr": ["Pressure of 1 atm"]}