{"components": [{"name": "1-propyl-3-methylimidazolium tetrafluoroborate", "sample": [["Source:", "synthesized by the authors"], ["Purification:", "Karl Fischer titration;ion-selective electrode"], ["Purity:", "0.005 water mass %;0.0001 halide impurity mass %(de-gassed by evacuation)"]], "idout": "AAonXs", "formula": "C<SUB>7</SUB>H<SUB>13</SUB>BF<SUB>4</SUB>N<SUB>2</SUB>", "mw": "212.00"}], "constr": ["Pressure of 1 atm"], "dhead": [["Normal melting temperature, K"]], "phases": ["Crystal", "Liquid"], "data": [[["256.1", "1"]]], "solvent": null, "expmeth": "DSC/DTA", "footer": "", "title": "Phase transition properties: Normal melting temperature", "ref": {"full": "Nishida, T.; Tashiro, Y.; Yamamoto, M. (2003) J. Fluorine Chem. 120, 135-141.", "title": "Physical and electrochemical properties of 1-alkyl-3-methylimidazolium tetrafluoroborate for electrolyte"}}