{"footer": "", "solvent": null, "expmeth": "DSC/DTA", "ref": {"full": "Nishida, T.; Tashiro, Y.; Yamamoto, M. (2003) J. Fluorine Chem. 120, 135-141.", "title": "Physical and electrochemical properties of 1-alkyl-3-methylimidazolium tetrafluoroborate for electrolyte"}, "title": "Phase transition properties: Normal melting temperature", "phases": ["Crystal", "Liquid"], "dhead": [["Normal melting temperature, K"]], "data": [[["286.1", "1"]]], "constr": ["Pressure of 1 atm"], "components": [{"formula": "C<SUB>6</SUB>H<SUB>11</SUB>BF<SUB>4</SUB>N<SUB>2</SUB>", "sample": [["Source:", "synthesized by the authors"], ["Purification:", "Karl Fischer titration;ion-selective electrode"], ["Purity:", "0.005 water mass %;0.0001 halide impurity mass %(de-gassed by evacuation)"]], "idout": "AAmDrr", "name": "1-ethyl-3-methylimidazolium tetrafluoroborate", "mw": "197.97"}]}