{"components": [{"name": "1-butyl-3-methylimidazolium bromide", "sample": [["Source:", "synthesized by the authors"], ["Purification:", "estimated by the compiler"], ["Purity:", "97 mass %"]], "idout": "AAqHDZ", "formula": "C<SUB>8</SUB>H<SUB>15</SUB>BrN<SUB>2</SUB>", "mw": "219.13"}], "constr": ["Pressure of 1 atm"], "phases": ["Crystal", "Liquid"], "dhead": [["Normal melting temperature, K"]], "data": [[["350.8", "0.5"]]], "footer": "", "expmeth": "DSC/DTA", "solvent": null, "ref": {"full": "Nishikawa, K.; Wang, S.; Katayanagi, H.; Hayashi, S.; Hamaguchi, H.-o.; Koga, Y.; Tozaki, K.-i. (2007) J. Phys. Chem. B 111, 4894-4900.", "title": "Melting and Freezing Behaviors of Prototype Ionic Liquids, 1-Butyl-3-methylimidazolium Bromide and Its Chloride, Studied by Using a Nano-Watt Differential Scanning Calorimeter"}, "title": "Phase transition properties: Normal melting temperature"}