{"components": [{"mw": "174.67", "name": "1-butyl-3-methylimidazolium chloride", "idout": "AAhedZ", "sample": [["Source:", "synthesized by the authors"], ["Purification:", "estimated by the compiler"], ["Purity:", "97 mass %"]], "formula": "C<SUB>8</SUB>H<SUB>15</SUB>ClN<SUB>2</SUB>"}], "constr": ["Pressure of 1 atm"], "phases": ["Crystal 1", "Liquid"], "dhead": [["Normal melting temperature, K"]], "data": [[["338", "2"]]], "footer": "", "solvent": null, "expmeth": "DSC/DTA", "ref": {"title": "Melting and Freezing Behaviors of Prototype Ionic Liquids, 1-Butyl-3-methylimidazolium Bromide and Its Chloride, Studied by Using a Nano-Watt Differential Scanning Calorimeter", "full": "Nishikawa, K.; Wang, S.; Katayanagi, H.; Hayashi, S.; Hamaguchi, H.-o.; Koga, Y.; Tozaki, K.-i. (2007) J. Phys. Chem. B 111, 4894-4900."}, "title": "Phase transition properties: Normal melting temperature"}