{"phases": ["Metastable crystal", "Liquid"], "dhead": [["Normal melting temperature, K"]], "data": [[["257", "2"]]], "constr": ["Pressure of 1 atm"], "components": [{"mw": "391.30", "name": "1-ethyl-3-methylimidazolium bis[(trifluoromethyl)sulfonyl]imide", "sample": [["Source:", "synthesized by the authors"], ["Purification:", "estimated by the compiler"], ["Purity:", "97 mass %(dried by vacuum heating)"]], "idout": "ABXNPV", "formula": "C<SUB>8</SUB>H<SUB>11</SUB>F<SUB>6</SUB>N<SUB>3</SUB>O<SUB>4</SUB>S<SUB>2</SUB>"}], "footer": "", "solvent": null, "expmeth": "DSC/DTA", "title": "Phase transition properties: Normal melting temperature", "ref": {"full": "Noda, A.; Hayamizu, K.; Watanabe, M. (2001) J. Phys. Chem. B 105, 4603-4610.", "title": "Pulsed-Gradient Spin-Echo 1H and 19F NMR Ionic Diffusion Coefficient, Viscosity, and Ionic Conductivity of Non-Chloroaluminate Room-Temperature Ionic Liquids"}}