{"title": "Phase transition properties: Normal melting temperature", "ref": {"full": "Noda, A.; Hayamizu, K.; Watanabe, M. (2001) J. Phys. Chem. B 105, 4603-4610.", "title": "Pulsed-Gradient Spin-Echo 1H and 19F NMR Ionic Diffusion Coefficient, Viscosity, and Ionic Conductivity of Non-Chloroaluminate Room-Temperature Ionic Liquids"}, "footer": "", "solvent": null, "expmeth": "DSC/DTA", "data": [[["288", "1"]]], "phases": ["Crystal", "Liquid"], "dhead": [["Normal melting temperature, K"]], "constr": ["Pressure of 1 atm"], "components": [{"idout": "AAmDrr", "sample": [["Source:", "synthesized by the authors"], ["Purification:", "estimated by the compiler"], ["Purity:", "97 mass %(dried by vacuum heating)"]], "name": "1-ethyl-3-methylimidazolium tetrafluoroborate", "formula": "C<SUB>6</SUB>H<SUB>11</SUB>BF<SUB>4</SUB>N<SUB>2</SUB>", "mw": "197.97"}]}