{"constr": ["Pressure of 1 atm"], "components": [{"mw": "307.24", "sample": [["Source:", "synthesized by the authors"], ["Initial purification:", "not known"], ["Initial purity:", "96 mass %"], ["Final purification:", "Karl Fischer titration"], ["Final purity:", "0.038 water mass %(de-gassed by evacuation)"]], "idout": "ABHEPx", "name": "1-(cyanomethyl)-3-methylimidazolium 4,5-dicyano-2-(trifluoromethyl)imidazolide", "formula": "C<SUB>12</SUB>H<SUB>8</SUB>F<SUB>3</SUB>N<SUB>7</SUB>"}], "phases": ["Crystal", "Liquid"], "dhead": [["Normal melting temperature, K"]], "data": [[["365.8", "0.5"]]], "footer": "", "expmeth": "DSC/DTA", "solvent": null, "title": "Phase transition properties: Normal melting temperature", "ref": {"title": "Solubility of ionic liquids in 2-phenylethanol (PEA) and water", "full": "Okuniewska, P.; Ramjugernath, D.; Naidoo, P.; Domanska, U. (2014) Fluid Phase Equilib. 376, 55-63."}}