{"phases": ["Crystal", "Liquid"], "dhead": [["Normal melting temperature, K"]], "data": [[["328.3", "1.1"]]], "constr": ["Pressure of 1 atm"], "components": [{"mw": "494.47", "name": "N-hexylisoquinolinium bis(trifluoromethylsulfonyl)imide", "idout": "ABrEtV", "sample": [["Source:", "synthesized by the authors"], ["Initial purification:", "not known"], ["Initial purity:", "96 mass %"], ["Final purification:", "Karl Fischer titration"], ["Final purity:", "0.0307 water mass %(de-gassed by evacuation)"]], "formula": "C<SUB>17</SUB>H<SUB>20</SUB>F<SUB>6</SUB>N<SUB>2</SUB>O<SUB>4</SUB>S<SUB>2</SUB>"}], "footer": "", "expmeth": "Visual observation", "solvent": null, "ref": {"full": "Okuniewska, P.; Ramjugernath, D.; Naidoo, P.; Domanska, U. (2014) Fluid Phase Equilib. 376, 55-63.", "title": "Solubility of ionic liquids in 2-phenylethanol (PEA) and water"}, "title": "Phase transition properties: Normal melting temperature"}