{"phases": ["Crystal", "Liquid"], "dhead": [["Normal melting temperature, K"]], "data": [[["355.9", "1.1"]]], "components": [{"name": "1-ethyl-1-methylpiperidinium bis(trifluoromethylsulfonyl)imide", "idout": "ABabqJ", "sample": [["Source:", "commercial source"], ["Initial purification:", "stated by supplier"], ["Initial purity:", "99 mass %"], ["Final purification:", "Karl Fischer titration"], ["Final purity:", "0.03 water mass %(de-gassed by evacuation)"]], "formula": "C<SUB>10</SUB>H<SUB>18</SUB>F<SUB>6</SUB>N<SUB>2</SUB>O<SUB>4</SUB>S<SUB>2</SUB>", "mw": "408.37"}], "constr": ["Pressure of 1 atm"], "footer": "", "solvent": null, "expmeth": "Visual observation", "title": "Phase transition properties: Normal melting temperature", "ref": {"title": "Solubility of ionic liquids in 2-phenylethanol (PEA) and water", "full": "Okuniewska, P.; Ramjugernath, D.; Naidoo, P.; Domanska, U. (2014) Fluid Phase Equilib. 376, 55-63."}}