{"dhead": [["Normal melting temperature, K"]], "phases": ["Crystal", "Liquid"], "data": [[["340.8", "1.1"]]], "components": [{"sample": [["Source:", "synthesized by the authors"]], "idout": "ABIpah", "name": "1-phenyl-2-butyl-3,5-dimethylpyrazolium tetrafluoroborate", "formula": "C<SUB>15</SUB>H<SUB>21</SUB>BF<SUB>4</SUB>N<SUB>2</SUB>", "mw": "316.15"}], "constr": ["Pressure of 1 atm"], "solvent": null, "expmeth": "DSC/DTA", "footer": "", "ref": {"title": "Phenyl/alkyl-substituted-3,5-dimethylpyrazolium ionic liquids", "full": "Ozdemir, M. C.; Ozgun, B. (2014) J. Mol. Liq. 200, 129-135."}, "title": "Phase transition properties: Normal melting temperature"}