{"solvent": null, "expmeth": "DSC/DTA", "footer": "", "title": "Phase transition properties: Normal melting temperature", "ref": {"full": "Ozdemir, M. C.; Ozgun, B. (2014) J. Mol. Liq. 200, 129-135.", "title": "Phenyl/alkyl-substituted-3,5-dimethylpyrazolium ionic liquids"}, "components": [{"formula": "C<SUB>15</SUB>H<SUB>22</SUB>N<SUB>2</SUB>O<SUB>3</SUB>S", "name": "1-phenyl-3,5-dimethyl-2-propylpyrazolium methanesulfonate", "sample": [["Source:", "synthesized by the authors"]], "idout": "ABHkpq", "mw": "310.41"}], "constr": ["Pressure of 1 atm"], "dhead": [["Normal melting temperature, K"]], "phases": ["Crystal", "Liquid"], "data": [[["365.6", "1.1"]]]}