{"title": "Phase transition properties: Normal melting temperature", "ref": {"title": "Phenyl/alkyl-substituted-3,5-dimethylpyrazolium ionic liquids", "full": "Ozdemir, M. C.; Ozgun, B. (2014) J. Mol. Liq. 200, 129-135."}, "footer": "", "expmeth": "DSC/DTA", "solvent": null, "data": [[["353.1", "1.1"]]], "phases": ["Crystal", "Liquid"], "dhead": [["Normal melting temperature, K"]], "constr": ["Pressure of 1 atm"], "components": [{"formula": "C<SUB>14</SUB>H<SUB>19</SUB>BF<SUB>4</SUB>N<SUB>2</SUB>", "idout": "ABGFkF", "sample": [["Source:", "synthesized by the authors"]], "name": "1-phenyl-3,5-dimethyl-2-propylpyrazolium tetrafluoroborate", "mw": "302.12"}]}