{"data": [[["267", "1"]]], "dhead": [["Normal melting temperature, K"]], "phases": ["Crystal 1", "Liquid"], "constr": ["Pressure of 1 atm"], "components": [{"mw": "205.26", "formula": "C<SUB>10</SUB>H<SUB>15</SUB>N<SUB>5</SUB>", "idout": "AAnYfG", "sample": [["Source:", "commercial source"], ["Initial purification:", "stated by supplier"], ["Initial purity:", "98 mass %"], ["Final purification:", "Karl Fischer titration"], ["Final purity:", "0.03 water mass %(dried by vacuum heating)"]], "name": "1-butyl-3-methylimidazolium dicyanamide"}], "title": "Phase transition properties: Normal melting temperature", "ref": {"title": "Thermal analysis and heat capacities of pyridinium and imidazolium  ionic liquids", "full": "Calvar, N.; Gomez, E.; Macedo, E. A.; Dominguez, A. (2013) Thermochim. Acta 565, 178-82."}, "solvent": null, "expmeth": "DSC/DTA", "footer": ""}