{"ref": {"full": "Ozdemir, M. C.; Ozgun, B. (2014) J. Mol. Liq. 200, 129-135.", "title": "Phenyl/alkyl-substituted-3,5-dimethylpyrazolium ionic liquids"}, "title": "Phase transition properties: Normal melting temperature", "footer": "", "solvent": null, "expmeth": "DSC/DTA", "data": [[["418.4", "1.1"]]], "phases": ["Crystal", "Liquid"], "dhead": [["Normal melting temperature, K"]], "constr": ["Pressure of 1 atm"], "components": [{"mw": "274.07", "formula": "C<SUB>12</SUB>H<SUB>15</SUB>BF<SUB>4</SUB>N<SUB>2</SUB>", "name": "1-phenyl-2,3,5-trimethylpyrazolium tetrafluoroborate", "sample": [["Source:", "synthesized by the authors"]], "idout": "ABAksv"}]}