{"footer": "", "solvent": null, "expmeth": "Visual observation", "title": "Phase transition properties: Normal melting temperature", "ref": {"full": "Ozdil, S. E.; Akbas, H.; Boz, M. (2016) J. Chem. Eng. Data 61(1), 142-150.", "title": "Synthesis and Physicochemical Properties of Double-Chain Cationic Surfactants"}, "components": [{"mw": "434.59", "formula": "C<SUB>24</SUB>H<SUB>52</SUB>BrN", "sample": [["Source:", "synthesized by the authors"], ["Purification:", "NMR (proton)"], ["Purity:", "99.5 mol %(crystallization from solution)"]], "idout": "ABfdDs", "name": "didecyldiethylammonium bromide"}], "constr": ["Pressure of 1 atm"], "phases": ["Crystal", "Liquid"], "dhead": [["Normal melting temperature, K"]], "data": [[["318.1", "1.1"]]]}