{"phases": ["Crystal", "Liquid"], "dhead": [["Normal melting temperature, K"]], "data": [[["520.1", "1.1"]]], "components": [{"mw": "364.46", "formula": "C<SUB>19</SUB>H<SUB>42</SUB>BrN", "sample": [["Source:", "commercial source"], ["Purification:", "stated by supplier"], ["Purity:", "99.0 mass %"], ["Purity analysis:", "none used"]], "idout": "ABSEGI", "name": "N,N,N-trimethyl-1-hexadecanaminium bromide"}], "constr": ["Pressure of 1 atm"], "footer": "", "solvent": null, "expmeth": "Visual observation", "ref": {"full": "Ozdil, S. E.; Akbas, H.; Boz, M. (2016) J. Chem. Eng. Data 61(1), 142-150.", "title": "Synthesis and Physicochemical Properties of Double-Chain Cationic Surfactants"}, "title": "Phase transition properties: Normal melting temperature"}