{"phases": ["Crystal", "Liquid"], "dhead": [["Normal melting temperature, K"]], "data": [[["285.7", "0.4"]]], "components": [{"mw": "422.40", "name": "1-methyl-1-propylpiperidinium bis(trifluoromethylsulfonyl)imide", "idout": "ABdMfC", "sample": [["Source:", "commercial source"], ["Purification:", "stated by supplier"], ["Purity:", "99 mass %"], ["Purity analysis:", "dried by vacuum heating"]], "formula": "C<SUB>11</SUB>H<SUB>20</SUB>F<SUB>6</SUB>N<SUB>2</SUB>O<SUB>4</SUB>S<SUB>2</SUB>"}], "constr": ["Pressure of 1 atm"], "footer": "", "expmeth": "DSC/DTA", "solvent": null, "ref": {"title": "Liquid-liquid phase equilibrium of (piperidinium-based ionic liquid + an alcohol)  binary systems and modelling with NRHB and PCP-SAFT", "full": "Paduszynski, K.; Chiyen, J.; Ramjugernath, D.; Letcher, T. M.; Domanska, U. (2011) Fluid Phase Equilib. 305(1), 43-52."}, "title": "Phase transition properties: Normal melting temperature"}