{"dhead": [["Normal melting temperature, K"]], "phases": ["Crystal", "Liquid"], "data": [[["268.1", "2"]]], "constr": ["Pressure of 1 atm"], "components": [{"formula": "C<SUB>14</SUB>H<SUB>23</SUB>N<SUB>5</SUB>", "sample": [["Source:", "synthesized by the authors"]], "idout": "AAyNdf", "name": "3-methyl-1-octylimidazolium dicyanamide", "mw": "261.37"}], "solvent": null, "expmeth": "DSC/DTA", "footer": "", "ref": {"title": "Synthesis and Properties of Seven Ionic Liquids Containing 1-Methyl-3-octylimidazolium or 1-Butyl-4-methylpyridinium Cations", "full": "Papaiconomou, N.; Yakelis, N.; Salminen, J.; Bergman, R.; Prausnitz, J. M. (2006) J. Chem. Eng. Data 51(4), 1389-1393."}, "title": "Phase transition properties: Normal melting temperature"}