{"dhead": [["Normal melting temperature, K"]], "phases": ["Crystal", "Liquid"], "data": [[["288.1", "2"]]], "components": [{"formula": "C<SUB>9</SUB>H<SUB>15</SUB>F<SUB>3</SUB>N<SUB>2</SUB>O<SUB>3</SUB>S", "idout": "ABDWwg", "sample": [["Source:", "synthesized by the authors"]], "name": "1-butyl-3-methylimidazolium trifluoromethanesulfonate", "mw": "288.29"}], "constr": ["Pressure of 1 atm"], "expmeth": "DSC/DTA", "solvent": null, "footer": "", "ref": {"title": "Synthesis and Properties of Seven Ionic Liquids Containing 1-Methyl-3-octylimidazolium or 1-Butyl-4-methylpyridinium Cations", "full": "Papaiconomou, N.; Yakelis, N.; Salminen, J.; Bergman, R.; Prausnitz, J. M. (2006) J. Chem. Eng. Data 51(4), 1389-1393."}, "title": "Phase transition properties: Normal melting temperature"}