{"footer": "", "expmeth": "DSC/DTA", "solvent": null, "ref": {"title": "Synthesis and Properties of Seven Ionic Liquids Containing 1-Methyl-3-octylimidazolium or 1-Butyl-4-methylpyridinium Cations", "full": "Papaiconomou, N.; Yakelis, N.; Salminen, J.; Bergman, R.; Prausnitz, J. M. (2006) J. Chem. Eng. Data 51(4), 1389-1393."}, "title": "Phase transition properties: Normal melting temperature", "phases": ["Crystal", "Liquid"], "dhead": [["Normal melting temperature, K"]], "data": [[["283.1", "2"]]], "constr": ["Pressure of 1 atm"], "components": [{"mw": "430.38", "sample": [["Source:", "synthesized by the authors"]], "idout": "ABenwV", "name": "1-butyl-4-methylpyridinium bis((trifluoromethyl)sulfonyl)amide", "formula": "C<SUB>12</SUB>H<SUB>16</SUB>F<SUB>6</SUB>N<SUB>2</SUB>O<SUB>4</SUB>S<SUB>2</SUB>"}]}