{"dhead": [["Normal melting temperature, K"]], "phases": ["Crystal", "Liquid"], "data": [[["278.1", "2"]]], "constr": ["Pressure of 1 atm"], "components": [{"formula": "C<SUB>13</SUB>H<SUB>23</SUB>F<SUB>3</SUB>N<SUB>2</SUB>O<SUB>3</SUB>S", "name": "1-octyl-3-methylimidazolium trifluoromethanesulfonate", "idout": "ABOLLI", "sample": [["Source:", "synthesized by the authors"]], "mw": "344.39"}], "expmeth": "DSC/DTA", "solvent": null, "footer": "", "ref": {"full": "Papaiconomou, N.; Yakelis, N.; Salminen, J.; Bergman, R.; Prausnitz, J. M. (2006) J. Chem. Eng. Data 51(4), 1389-1393.", "title": "Synthesis and Properties of Seven Ionic Liquids Containing 1-Methyl-3-octylimidazolium or 1-Butyl-4-methylpyridinium Cations"}, "title": "Phase transition properties: Normal melting temperature"}