{"solvent": null, "expmeth": "Visual observation", "footer": "", "ref": {"title": "Mixtures of Pyridine and Nicotine with Pyridinium-Based Ionic Liquids", "full": "Pereiro, A. B.; Rodriguez, A.; Blesic, M.; Shimizu, K.; Canongia Lopes, J. N.; Rebelo, L. P. N. (2011) J. Chem. Eng. Data 56(12), 4356-4363."}, "title": "Phase transition properties: Normal melting temperature", "constr": ["Pressure of 1 atm"], "components": [{"mw": "354.02", "name": "1-hexadecyl-3-methylpyridinium chloride", "sample": [["Source:", "synthesized by others"], ["Purification:", "NMR (proton)"], ["Purity:", "99 mol %(dried by vacuum heating)"]], "idout": "ABQEtf", "formula": "C<SUB>22</SUB>H<SUB>40</SUB>ClN"}], "dhead": [["Normal melting temperature, K"]], "phases": ["Crystal", "Liquid"], "data": [[["383.1", "2.5"]]]}