{"expmeth": "Visual observation", "solvent": null, "footer": "", "ref": {"title": "Mixtures of Pyridine and Nicotine with Pyridinium-Based Ionic Liquids", "full": "Pereiro, A. B.; Rodriguez, A.; Blesic, M.; Shimizu, K.; Canongia Lopes, J. N.; Rebelo, L. P. N. (2011) J. Chem. Eng. Data 56(12), 4356-4363."}, "title": "Phase transition properties: Normal melting temperature", "dhead": [["Normal melting temperature, K"]], "phases": ["Crystal", "Liquid"], "data": [[["352.3", "2.5"]]], "components": [{"idout": "AAuaNt", "sample": [["Source:", "synthesized by others"], ["Purification:", "NMR (proton)"], ["Purity:", "99 mol %(dried by vacuum heating)"]], "name": "1-octyl-3-methylpyridinium chloride", "formula": "C<SUB>14</SUB>H<SUB>24</SUB>ClN", "mw": "241.80"}], "constr": ["Pressure of 1 atm"]}