{"data": [[["382.9", "2.5"]]], "phases": ["Crystal", "Liquid"], "dhead": [["Normal melting temperature, K"]], "constr": ["Pressure of 1 atm"], "components": [{"mw": "185.69", "formula": "C<SUB>10</SUB>H<SUB>16</SUB>ClN", "name": "1-butyl-3-methylpyridinium chloride", "idout": "AAjkFf", "sample": [["Source:", "synthesized by others"], ["Purification:", "NMR (proton)"], ["Purity:", "99 mol %(dried by vacuum heating)"]]}], "title": "Phase transition properties: Normal melting temperature", "ref": {"full": "Pereiro, A. B.; Rodriguez, A.; Blesic, M.; Shimizu, K.; Canongia Lopes, J. N.; Rebelo, L. P. N. (2011) J. Chem. Eng. Data 56(12), 4356-4363.", "title": "Mixtures of Pyridine and Nicotine with Pyridinium-Based Ionic Liquids"}, "footer": "", "solvent": null, "expmeth": "Visual observation"}