{"data": [[["348.7", "2.5"]]], "phases": ["Crystal", "Liquid"], "dhead": [["Normal melting temperature, K"]], "components": [{"mw": "269.86", "formula": "C<SUB>16</SUB>H<SUB>28</SUB>ClN", "idout": "AAzusk", "sample": [["Source:", "synthesized by others"], ["Purification:", "NMR (proton)"], ["Purity:", "99 mol %(dried by vacuum heating)"]], "name": "1-decyl-3-methylpyridinium chloride"}], "constr": ["Pressure of 1 atm"], "ref": {"title": "Mixtures of Pyridine and Nicotine with Pyridinium-Based Ionic Liquids", "full": "Pereiro, A. B.; Rodriguez, A.; Blesic, M.; Shimizu, K.; Canongia Lopes, J. N.; Rebelo, L. P. N. (2011) J. Chem. Eng. Data 56(12), 4356-4363."}, "title": "Phase transition properties: Normal melting temperature", "footer": "", "solvent": null, "expmeth": "Visual observation"}