{"components": [{"mw": "297.91", "formula": "C<SUB>18</SUB>H<SUB>32</SUB>ClN", "sample": [["Source:", "synthesized by others"], ["Purification:", "NMR (proton)"], ["Purity:", "99 mol %(dried by vacuum heating)"]], "idout": "ABFPyV", "name": "1-dodecyl-3-methylpyridinium chloride"}], "constr": ["Pressure of 1 atm"], "phases": ["Crystal", "Liquid"], "dhead": [["Normal melting temperature, K"]], "data": [[["360.8", "0.8"]]], "footer": "", "solvent": null, "expmeth": "DSC/DTA", "title": "Phase transition properties: Normal melting temperature", "ref": {"title": "Mixtures of Pyridine and Nicotine with Pyridinium-Based Ionic Liquids", "full": "Pereiro, A. B.; Rodriguez, A.; Blesic, M.; Shimizu, K.; Canongia Lopes, J. N.; Rebelo, L. P. N. (2011) J. Chem. Eng. Data 56(12), 4356-4363."}}