{"title": "Phase transition properties: Normal melting temperature", "ref": {"full": "Pereiro, A. B.; Pastoriza-Gallego, M. J.; Shimizu, K.; Marrucho, I. M.; Lopes, J. N. C.; Rebelo, L. P. N.; Pineiro, M. M. (2013) J. Phys. Chem. B 117, 10826-10833.", "title": "On the Formation of a Third, Nanostructured Domain in Ionic Liquids"}, "footer": "", "solvent": null, "expmeth": "DSC/DTA", "data": [[["327.13", "0.5"]]], "phases": ["Crystal", "Liquid"], "dhead": [["Normal melting temperature, K"]], "constr": ["Pressure of 1 atm"], "components": [{"mw": "541.56", "formula": "C<SUB>20</SUB>H<SUB>36</SUB>F<SUB>9</SUB>NO<SUB>3</SUB>S", "idout": "ACAHrP", "sample": [["Source:", "commercial source"], ["Initial purification:", "NMR (proton)"], ["Initial purity:", "99 mass %"], ["Final purification:", "Karl Fischer titration;NMR (proton)"], ["Final purity:", "0.0100 water mass %;0.0250 halide impurity mass %(dried by vacuum heating)"]], "name": "tetrabutylammonium perfluorobutanesulfonate"}]}