{"phases": ["Crystal", "Liquid"], "dhead": [["Normal melting temperature, K"]], "data": [[["238.2", "1"]]], "components": [{"formula": "C<SUB>18</SUB>H<SUB>32</SUB>N<SUB>2</SUB>O<SUB>4</SUB>S", "name": "1-((hexyloxy)methyl)pyridinium N-cyclohexylsulfamate", "sample": [["Source:", "synthesized by the authors"], ["Purification:", "estimated by the compiler"], ["Purity:", "95 mass %"], ["Purity analysis:", "dried by vacuum heating"]], "idout": "ABThtL", "mw": "372.52"}], "constr": ["Pressure of 1 atm"], "footer": "", "solvent": null, "expmeth": "DSC/DTA", "title": "Phase transition properties: Normal melting temperature", "ref": {"full": "Pernak, J.; Wasinski, K.; Praczyk, T.; Nawrot, J.; Cieniecka-Roslonkiewicz, A.; Walkiewicz, F.; Materna, K. (2012) Sci. China Chem. 55(8), 1532-1541.", "title": "Sweet ionic liquids-cyclamates: Synthesis, properties, and application as feeding deterrents"}}