{"dhead": [["Normal melting temperature, K"]], "phases": ["Crystal", "Liquid"], "data": [[["305.65", "0.5"]]], "components": [{"mw": "456.69", "name": "1-((dodecyloxy)methyl)pyridinium N-cyclohexylsulfamate", "idout": "ABjqvq", "sample": [["Source:", "synthesized by the authors"], ["Purity:", "96 mass %"], ["Purity analysis:", "dried by vacuum heating"]], "formula": "C<SUB>24</SUB>H<SUB>44</SUB>N<SUB>2</SUB>O<SUB>4</SUB>S"}], "constr": ["Pressure of 1 atm"], "expmeth": "DSC/DTA", "solvent": null, "footer": "", "ref": {"full": "Pernak, J.; Wasinski, K.; Praczyk, T.; Nawrot, J.; Cieniecka-Roslonkiewicz, A.; Walkiewicz, F.; Materna, K. (2012) Sci. China Chem. 55(8), 1532-1541.", "title": "Sweet ionic liquids-cyclamates: Synthesis, properties, and application as feeding deterrents"}, "title": "Phase transition properties: Normal melting temperature"}