{"data": [[["259.05", "0.5"]]], "phases": ["Crystal", "Liquid"], "dhead": [["Normal melting temperature, K"]], "constr": ["Pressure of 1 atm"], "components": [{"formula": "C<SUB>19</SUB>H<SUB>34</SUB>N<SUB>2</SUB>O<SUB>4</SUB>S", "name": "1-((heptyloxy)methyl)pyridinium N-cyclohexylsulfamate", "idout": "ABWRAH", "sample": [["Source:", "synthesized by the authors"], ["Purification:", "estimated by the compiler"], ["Purity:", "95 mass %"], ["Purity analysis:", "dried by vacuum heating"]], "mw": "386.55"}], "title": "Phase transition properties: Normal melting temperature", "ref": {"title": "Sweet ionic liquids-cyclamates: Synthesis, properties, and application as feeding deterrents", "full": "Pernak, J.; Wasinski, K.; Praczyk, T.; Nawrot, J.; Cieniecka-Roslonkiewicz, A.; Walkiewicz, F.; Materna, K. (2012) Sci. China Chem. 55(8), 1532-1541."}, "footer": "", "solvent": null, "expmeth": "DSC/DTA"}