{"ref": {"full": "Pernak, J.; Wasinski, K.; Praczyk, T.; Nawrot, J.; Cieniecka-Roslonkiewicz, A.; Walkiewicz, F.; Materna, K. (2012) Sci. China Chem. 55(8), 1532-1541.", "title": "Sweet ionic liquids-cyclamates: Synthesis, properties, and application as feeding deterrents"}, "title": "Phase transition properties: Normal melting temperature", "footer": "", "expmeth": "DSC/DTA", "solvent": null, "data": [[["388.45", "0.5"]]], "phases": ["Crystal", "Liquid"], "dhead": [["Normal melting temperature, K"]], "constr": ["Pressure of 1 atm"], "components": [{"mw": "426.66", "formula": "C<SUB>23</SUB>H<SUB>42</SUB>N<SUB>2</SUB>O<SUB>3</SUB>S", "idout": "ABeCxR", "sample": [["Source:", "synthesized by the authors"], ["Purity:", "98 mass %"], ["Purity analysis:", "dried by vacuum heating"]], "name": "1-dodecylpyridinium N-cyclohexylsulfamate"}]}