{"dhead": [["Normal melting temperature, K"]], "phases": ["Crystal", "Liquid"], "data": [[["357", "2"]]], "constr": ["Pressure of 1 atm"], "components": [{"name": "1-ethyl-3-methylimidazolium chloride", "idout": "AAcKJZ", "sample": [["Source:", "commercial source"], ["Initial purification:", "stated by supplier"], ["Initial purity:", "98 mass %"], ["Final purification:", "NMR (proton);Karl Fischer titration"], ["Final purity:", "98 mass %;0.2 water mass %(dried by vacuum heating)"]], "formula": "C<SUB>6</SUB>H<SUB>11</SUB>ClN<SUB>2</SUB>", "mw": "146.62"}], "expmeth": "DSC/DTA", "solvent": null, "footer": "", "title": "Phase transition properties: Normal melting temperature", "ref": {"title": "Liquid-liquid equilibria of mutually immiscible ionic liquids with a common anion of basic character", "full": "Castro, M. C.; Arce, A.; Soto, A.; Rodriguez, H. (2016) J. Chem. Thermodyn. 102, 12-21."}}