{"data": [[["323.55", "0.5"]]], "phases": ["Crystal", "Liquid"], "dhead": [["Normal melting temperature, K"]], "components": [{"name": "N-decyl-N,N-dimethyldecan-1-aminium N-cyclohexylsulfamate", "sample": [["Source:", "synthesized by the authors"], ["Purity:", "95 mass %"], ["Purity analysis:", "dried by vacuum heating"]], "idout": "ABtEfu", "formula": "C<SUB>28</SUB>H<SUB>60</SUB>N<SUB>2</SUB>O<SUB>3</SUB>S", "mw": "504.86"}], "constr": ["Pressure of 1 atm"], "ref": {"title": "Sweet ionic liquids-cyclamates: Synthesis, properties, and application as feeding deterrents", "full": "Pernak, J.; Wasinski, K.; Praczyk, T.; Nawrot, J.; Cieniecka-Roslonkiewicz, A.; Walkiewicz, F.; Materna, K. (2012) Sci. China Chem. 55(8), 1532-1541."}, "title": "Phase transition properties: Normal melting temperature", "footer": "", "expmeth": "DSC/DTA", "solvent": null}