{"components": [{"name": "1-butyl-3-methyl-1H-imidazolium N-cyclohexylsulfamate", "idout": "ABJCGS", "sample": [["Source:", "synthesized by the authors"], ["Purification:", "estimated by the compiler"], ["Purity:", "95 mass %"], ["Purity analysis:", "dried by vacuum heating"]], "formula": "C<SUB>14</SUB>H<SUB>27</SUB>N<SUB>3</SUB>O<SUB>3</SUB>S", "mw": "317.45"}], "constr": ["Pressure of 1 atm"], "dhead": [["Normal melting temperature, K"]], "phases": ["Crystal", "Liquid"], "data": [[["345.55", "0.5"]]], "expmeth": "DSC/DTA", "solvent": null, "footer": "", "title": "Phase transition properties: Normal melting temperature", "ref": {"full": "Pernak, J.; Wasinski, K.; Praczyk, T.; Nawrot, J.; Cieniecka-Roslonkiewicz, A.; Walkiewicz, F.; Materna, K. (2012) Sci. China Chem. 55(8), 1532-1541.", "title": "Sweet ionic liquids-cyclamates: Synthesis, properties, and application as feeding deterrents"}}