{"title": "Phase transition properties: Normal melting temperature", "ref": {"title": "Sweet ionic liquids-cyclamates: Synthesis, properties, and application as feeding deterrents", "full": "Pernak, J.; Wasinski, K.; Praczyk, T.; Nawrot, J.; Cieniecka-Roslonkiewicz, A.; Walkiewicz, F.; Materna, K. (2012) Sci. China Chem. 55(8), 1532-1541."}, "footer": "", "expmeth": "DSC/DTA", "solvent": null, "data": [[["281.75", "0.5"]]], "phases": ["Crystal", "Liquid"], "dhead": [["Normal melting temperature, K"]], "constr": ["Pressure of 1 atm"], "components": [{"formula": "C<SUB>21</SUB>H<SUB>38</SUB>N<SUB>2</SUB>O<SUB>4</SUB>S", "name": "1-((nonyloxy)methyl)pyridinium N-cyclohexylsulfamate", "idout": "ABbmGx", "sample": [["Source:", "synthesized by the authors"], ["Purity:", "95 mass %"], ["Purity analysis:", "dried by vacuum heating"]], "mw": "414.61"}]}