{"solvent": null, "expmeth": "DSC/DTA", "footer": "", "title": "Phase transition properties: Normal melting temperature", "ref": {"full": "Rao, C. J.; Krishnan, R. V.; Venkatesan, K. A.; Nagarajan, K.; Srinivasan, T. G. (2009) J. Therm. Anal. Calorim. 97, 937-943.", "title": "Thermochemical properties of some bis(trifluoromethylsulfonyl) imide based room temperature ionic liquids"}, "dhead": [["Normal melting temperature, K"]], "phases": ["Crystal", "Liquid"], "data": [[["523", "1"]]], "constr": ["Pressure of 1 atm"], "components": [{"mw": "222.17", "name": "1-methyl-1-propylpiperidinium bromide", "sample": [["Source:", "synthesized by the authors"], ["Purification:", "estimated by the compiler"], ["Purity:", "98 mass %(dried in a desiccator;impurity adsorption)"]], "idout": "AAqlXV", "formula": "C<SUB>9</SUB>H<SUB>20</SUB>BrN"}]}