{"data": [[["267.2", "0.5"]]], "phases": ["Crystal", "Liquid"], "dhead": [["Normal melting temperature, K"]], "constr": ["Pressure of 1 atm"], "components": [{"name": "methyltrioctylammonium oleate", "sample": [["Source:", "synthesized by the authors"], ["Purification:", "estimated by the compiler;Karl Fischer titration;chemical analysis"], ["Purity:", "96 mol %;0.0130 water mass %;0.00014 halide impurity mass %(dried by vacuum heating)"]], "idout": "ACVBFm", "formula": "C<SUB>43</SUB>H<SUB>87</SUB>NO<SUB>2</SUB>", "mw": "650.17"}], "title": "Phase transition properties: Normal melting temperature", "ref": {"title": "Physicochemical properties of fatty acid based ionic liquids", "full": "Rocha, M. A. A.; van den Bruinhorst, A.; Schroer, W.; Rathke, B.; Kroon, M. C. (2016) J. Chem. Thermodyn. 100, 156-164."}, "footer": "", "expmeth": "DSC/DTA", "solvent": null}