{"solvent": null, "expmeth": "DSC/DTA", "footer": "", "title": "Phase transition properties: Normal melting temperature", "ref": {"full": "Castro, M. C.; Arce, A.; Soto, A.; Rodriguez, H. (2016) J. Chem. Thermodyn. 102, 12-21.", "title": "Liquid-liquid equilibria of mutually immiscible ionic liquids with a common anion of basic character"}, "dhead": [["Normal melting temperature, K"]], "phases": ["Crystal", "Liquid"], "data": [[["207", "2"]]], "components": [{"mw": "519.32", "name": "trihexyl(tetradecyl)phosphonium chloride", "idout": "ABvtaj", "sample": [["Source:", "commercial source"], ["Initial purification:", "stated by supplier"], ["Initial purity:", "97 mass %"], ["Final purification:", "NMR (proton);Karl Fischer titration"], ["Final purity:", "98 mass %;0.07 water mass %(dried by vacuum heating)"]], "formula": "C<SUB>32</SUB>H<SUB>68</SUB>ClP"}], "constr": ["Pressure of 1 atm"]}