{"footer": "", "expmeth": "DSC/DTA", "solvent": null, "ref": {"title": "The effect of n vs. iso Isomerization on the thermophysical properties of aromatic and non-aromatic ionic liquids", "full": "Rodrigues, A. S. M. C.; Almeida, H. F. D.; Freire, M. G.; Lopes-da-Silva, J. A.; Coutinho, J. A. P.; Santos, L. M. N. B. F. (2016) Fluid Phase Equilib. 423, 190-202."}, "title": "Phase transition properties: Normal melting temperature", "components": [{"idout": "ABdMuP", "sample": [["Source:", "commercial source"], ["Initial purification:", "NMR (proton)"], ["Initial purity:", "99 mol %"], ["Final purification:", "Karl Fischer titration;ion chromatography"], ["Final purity:", "0.0055 water mass %;0.01 halide impurity mass %"]], "name": "1-butyl-1-methylpyrrolidinium bis[(trifluoromethyl)sulfonyl]imide", "formula": "C<SUB>11</SUB>H<SUB>20</SUB>F<SUB>6</SUB>N<SUB>2</SUB>O<SUB>4</SUB>S<SUB>2</SUB>", "mw": "422.40"}], "constr": ["Pressure of 1 atm"], "phases": ["Crystal", "Liquid"], "dhead": [["Normal melting temperature, K"]], "data": [[["259.7", "1.1"]]]}