{"ref": {"title": "THERMOGRAPHIC MATERIALS CONTAINING IONIC LIQUIDS", "full": "Sakizadeh, K.; Olson, L. P.; Cowdery-Corvan, P. J.; Ishida, T.; Whitcomb, D. R. (2007) U.S. Patent US7163786B1, 2007, Jan. 16."}, "title": "Phase transition properties: Normal melting temperature", "footer": "", "solvent": null, "expmeth": "unknown", "data": [[["311.1", "6"]]], "phases": ["Crystal", "Liquid"], "dhead": [["Normal melting temperature, K"]], "constr": ["Pressure of 1 atm"], "components": [{"formula": "C<SUB>6</SUB>H<SUB>11</SUB>N<SUB>3</SUB>O<SUB>3</SUB>", "idout": "AAhPkV", "sample": [["Purity analysis:", "unspecified"]], "name": "1-ethyl-3-methylimidazolium nitrate", "mw": "173.17"}]}