{"phases": ["Crystal", "Liquid"], "dhead": [["Normal melting temperature, K"]], "data": [[["206", "2"]]], "constr": ["Pressure of 1 atm"], "components": [{"mw": "542.91", "formula": "C<SUB>34</SUB>H<SUB>71</SUB>O<SUB>2</SUB>P", "name": "trihexyl(tetradecyl)phosphonium acetate", "idout": "ACAVyy", "sample": [["Source:", "synthesized by the authors"], ["Purification:", "NMR (proton);Karl Fischer titration;ion chromatography"], ["Purity:", "98 mass %;0.23 water mass %;0.17 halide impurity mass %(dried by vacuum heating)"]]}], "footer": "", "solvent": null, "expmeth": "DSC/DTA", "title": "Phase transition properties: Normal melting temperature", "ref": {"title": "Liquid-liquid equilibria of mutually immiscible ionic liquids with a common anion of basic character", "full": "Castro, M. C.; Arce, A.; Soto, A.; Rodriguez, H. (2016) J. Chem. Thermodyn. 102, 12-21."}}