{"components": [{"mw": "146.62", "formula": "C<SUB>6</SUB>H<SUB>11</SUB>ClN<SUB>2</SUB>", "sample": [["Purity analysis:", "unspecified"]], "idout": "AAcKJZ", "name": "1-ethyl-3-methylimidazolium chloride"}], "constr": ["Pressure of 1 atm"], "dhead": [["Normal melting temperature, K"]], "phases": ["Crystal", "Liquid"], "data": [[["353.1", "6"]]], "solvent": null, "expmeth": "unknown", "footer": "", "title": "Phase transition properties: Normal melting temperature", "ref": {"full": "Sakizadeh, K.; Olson, L. P.; Cowdery-Corvan, P. J.; Ishida, T.; Whitcomb, D. R. (2007) U.S. Patent US7163786B1, 2007, Jan. 16.", "title": "THERMOGRAPHIC MATERIALS CONTAINING IONIC LIQUIDS"}}