{"footer": "", "expmeth": "unknown", "solvent": null, "ref": {"full": "Sakizadeh, K.; Olson, L. P.; Cowdery-Corvan, P. J.; Ishida, T.; Whitcomb, D. R. (2007) U.S. Patent US7163786B1, 2007, Jan. 16.", "title": "THERMOGRAPHIC MATERIALS CONTAINING IONIC LIQUIDS"}, "title": "Phase transition properties: Normal melting temperature", "components": [{"mw": "396.40", "formula": "C<SUB>16</SUB>H<SUB>31</SUB>F<SUB>6</SUB>N<SUB>2</SUB>P", "sample": [["Purity analysis:", "unspecified"]], "idout": "ABYMWw", "name": "1-dodecyl-3-methylimidazolium hexafluorophosphate"}], "constr": ["Pressure of 1 atm"], "phases": ["Crystal", "Liquid"], "dhead": [["Normal melting temperature, K"]], "data": [[["333.1", "6"]]]}