{"dhead": [["Normal melting temperature, K"]], "phases": ["Crystal", "Liquid"], "data": [[["288.1", "6"]]], "components": [{"formula": "C<SUB>22</SUB>H<SUB>41</SUB>BF<SUB>4</SUB>N<SUB>2</SUB>", "name": "1-methyl-3-oleylimidazolium tetrafluoroborate", "sample": [["Purity analysis:", "unspecified"]], "idout": "ABcrRT", "mw": "420.39"}], "constr": ["Pressure of 1 atm"], "expmeth": "unknown", "solvent": null, "footer": "", "ref": {"full": "Sakizadeh, K.; Olson, L. P.; Cowdery-Corvan, P. J.; Ishida, T.; Whitcomb, D. R. (2007) U.S. Patent US7163786B1, 2007, Jan. 16.", "title": "THERMOGRAPHIC MATERIALS CONTAINING IONIC LIQUIDS"}, "title": "Phase transition properties: Normal melting temperature"}