{"data": [[["299.1", "6"]]], "phases": ["Crystal", "Liquid"], "dhead": [["Normal melting temperature, K"]], "constr": ["Pressure of 1 atm"], "components": [{"sample": [["Purity analysis:", "unspecified"]], "idout": "ABNCyU", "name": "1-dodecyl-3-methylimidazolium tetrafluoroborate", "formula": "C<SUB>16</SUB>H<SUB>31</SUB>BF<SUB>4</SUB>N<SUB>2</SUB>", "mw": "338.24"}], "ref": {"title": "THERMOGRAPHIC MATERIALS CONTAINING IONIC LIQUIDS", "full": "Sakizadeh, K.; Olson, L. P.; Cowdery-Corvan, P. J.; Ishida, T.; Whitcomb, D. R. (2007) U.S. Patent US7163786B1, 2007, Jan. 16."}, "title": "Phase transition properties: Normal melting temperature", "footer": "", "solvent": null, "expmeth": "unknown"}