{"data": [[["363.1", "6"]]], "phases": ["Crystal", "Liquid"], "dhead": [["Normal melting temperature, K"]], "constr": ["Pressure of 1 atm"], "components": [{"mw": "490.70", "name": "1-heptanaminium, N,N,N-triheptyl-, bromide", "sample": [["Purity analysis:", "unspecified"]], "idout": "ABqSaU", "formula": "C<SUB>28</SUB>H<SUB>60</SUB>BrN"}], "ref": {"title": "THERMOGRAPHIC MATERIALS CONTAINING IONIC LIQUIDS", "full": "Sakizadeh, K.; Olson, L. P.; Cowdery-Corvan, P. J.; Ishida, T.; Whitcomb, D. R. (2007) U.S. Patent US7163786B1, 2007, Jan. 16."}, "title": "Phase transition properties: Normal melting temperature", "footer": "", "expmeth": "unknown", "solvent": null}