{"components": [{"formula": "C<SUB>24</SUB>H<SUB>52</SUB>BF<SUB>4</SUB>N", "idout": "ABguBk", "sample": [["Purity analysis:", "unspecified"]], "name": "N,N,N-trihexyl-1-hexanaminium tetrafluoroborate", "mw": "441.49"}], "constr": ["Pressure of 1 atm"], "dhead": [["Normal melting temperature, K"]], "phases": ["Crystal", "Liquid"], "data": [[["364.1", "6"]]], "solvent": null, "expmeth": "unknown", "footer": "", "ref": {"full": "Sakizadeh, K.; Olson, L. P.; Cowdery-Corvan, P. J.; Ishida, T.; Whitcomb, D. R. (2007) U.S. Patent US7163786B1, 2007, Jan. 16.", "title": "THERMOGRAPHIC MATERIALS CONTAINING IONIC LIQUIDS"}, "title": "Phase transition properties: Normal melting temperature"}