{"footer": "", "expmeth": "DSC/DTA", "solvent": null, "title": "Phase transition properties: Normal melting temperature", "ref": {"title": "Thermophysical properties of ammonium and hydroxylammonium protic ionic liquids", "full": "Chhotaray, P. K.; Gardas, R. L. (2014) J. Chem. Thermodyn. 72, 117-124."}, "components": [{"mw": "105.14", "idout": "AAULqJ", "sample": [["Source:", "synthesized by the authors"], ["Purification:", "estimated by the compiler;Karl Fischer titration"], ["Purity:", "95 mol %;0.6753 water mass %(dried by vacuum heating)"]], "name": "propylammonium formate", "formula": "C<SUB>4</SUB>H<SUB>11</SUB>NO<SUB>2</SUB>"}], "constr": ["Pressure of 1 atm"], "phases": ["Crystal", "Liquid"], "dhead": [["Normal melting temperature, K"]], "data": [[["307.1", "4"]]]}