{"footer": "", "expmeth": "unknown", "solvent": null, "ref": {"full": "Sakizadeh, K.; Olson, L. P.; Cowdery-Corvan, P. J.; Ishida, T.; Whitcomb, D. R. (2007) U.S. Patent US7163786B1, 2007, Jan. 16.", "title": "THERMOGRAPHIC MATERIALS CONTAINING IONIC LIQUIDS"}, "title": "Phase transition properties: Normal melting temperature", "phases": ["Crystal", "Liquid"], "dhead": [["Normal melting temperature, K"]], "data": [[["337.1", "6"]]], "constr": ["Pressure of 1 atm"], "components": [{"sample": [["Purity analysis:", "unspecified"]], "idout": "ABEkeH", "name": "tetrabutylphosphonium chloride", "formula": "C<SUB>16</SUB>H<SUB>36</SUB>ClP", "mw": "294.89"}]}