{"footer": "", "expmeth": "unknown", "solvent": null, "title": "Phase transition properties: Normal melting temperature", "ref": {"title": "THERMOGRAPHIC MATERIALS CONTAINING IONIC LIQUIDS", "full": "Sakizadeh, K.; Olson, L. P.; Cowdery-Corvan, P. J.; Ishida, T.; Whitcomb, D. R. (2007) U.S. Patent US7163786B1, 2007, Jan. 16."}, "phases": ["Metastable crystal", "Liquid"], "dhead": [["Normal melting temperature, K"]], "data": [[["314.1", "6"]]], "constr": ["Pressure of 1 atm"], "components": [{"name": "1-butyl-3-methylimidazolium chloride", "sample": [["Purity analysis:", "unspecified"]], "idout": "AAhedZ", "formula": "C<SUB>8</SUB>H<SUB>15</SUB>ClN<SUB>2</SUB>", "mw": "174.67"}]}