{"ref": {"full": "Sakizadeh, K.; Olson, L. P.; Cowdery-Corvan, P. J.; Ishida, T.; Whitcomb, D. R. (2007) U.S. Patent US7163786B1, 2007, Jan. 16.", "title": "THERMOGRAPHIC MATERIALS CONTAINING IONIC LIQUIDS"}, "title": "Phase transition properties: Normal melting temperature", "footer": "", "solvent": null, "expmeth": "unknown", "data": [[["311.1", "6"]]], "phases": ["Crystal", "Liquid"], "dhead": [["Normal melting temperature, K"]], "components": [{"mw": "240.05", "sample": [["Purity analysis:", "unspecified"]], "idout": "AAuIjr", "name": "1-butyl-2,3-dimethylimidazolium tetrafluoroborate", "formula": "C<SUB>9</SUB>H<SUB>17</SUB>BF<SUB>4</SUB>N<SUB>2</SUB>"}], "constr": ["Pressure of 1 atm"]}