{"expmeth": "Visual observation", "solvent": null, "footer": "", "title": "Phase transition properties: Normal melting temperature", "ref": {"title": "Solution Thermophysics of L-Ascorbic Acid in Aqueous Tetrabutylammonium Hydrogen Sulfate", "full": "Sarkar, A.; Mishra, D. K.; Sinha, B. (2016) J. Solution Chem. 45, 560-573."}, "dhead": [["Normal melting temperature, K"]], "phases": ["Crystal", "Liquid"], "data": [[["444", "1"]]], "constr": ["Pressure of 1 atm"], "components": [{"name": "tetrabutylammonium hydrogen sulfate", "idout": "ABNPWv", "sample": [["Source:", "commercial source"], ["Purification:", "stated by supplier"], ["Purity:", "98.5 mass %"], ["Purity analysis:", "crystallization from solution"]], "formula": "C<SUB>16</SUB>H<SUB>37</SUB>NO<SUB>4</SUB>S", "mw": "339.54"}]}