{"components": [{"mw": "185.69", "idout": "AAjkFf", "sample": [["Source:", "synthesized by the authors"]], "name": "1-butyl-3-methylpyridinium chloride", "formula": "C<SUB>10</SUB>H<SUB>16</SUB>ClN"}], "constr": ["Pressure of 1 atm"], "dhead": [["Normal melting temperature, K"]], "phases": ["Crystal", "Liquid"], "data": [[["366.1", "5"]]], "expmeth": "DSC/DTA", "solvent": null, "footer": "", "title": "Phase transition properties: Normal melting temperature", "ref": {"full": "Sashina, E. S.; Kashirskii, D. A.; Janowska, G.; Zaborski, M. (2013) Thermochim. Acta 568, 185-8.", "title": "Thermal properties of 1-alkyl-3-methylpyridinium halide-based ionic  liquids"}}