{"components": [{"mw": "185.69", "name": "1-butyl-3-methylpyridinium chloride", "sample": [["Source:", "synthesized by the authors"]], "idout": "AAjkFf", "formula": "C<SUB>10</SUB>H<SUB>16</SUB>ClN"}], "constr": ["Pressure of 1 atm"], "phases": ["Crystal", "Liquid"], "dhead": [["Normal melting temperature, K"]], "data": [[["370.1", "5"]]], "footer": "", "solvent": null, "expmeth": "Visual observation", "title": "Phase transition properties: Normal melting temperature", "ref": {"title": "Thermal properties of 1-alkyl-3-methylpyridinium halide-based ionic  liquids", "full": "Sashina, E. S.; Kashirskii, D. A.; Janowska, G.; Zaborski, M. (2013) Thermochim. Acta 568, 185-8."}}