{"dhead": [["Normal melting temperature, K"]], "phases": ["Crystal", "Liquid"], "data": [[["365.1", "5"]]], "components": [{"formula": "C<SUB>11</SUB>H<SUB>18</SUB>ClN", "name": "1-pentyl-3-methylpyridinium chloride", "sample": [["Source:", "synthesized by the authors"]], "idout": "AAmVRR", "mw": "199.72"}], "constr": ["Pressure of 1 atm"], "solvent": null, "expmeth": "Visual observation", "footer": "", "title": "Phase transition properties: Normal melting temperature", "ref": {"full": "Sashina, E. S.; Kashirskii, D. A.; Janowska, G.; Zaborski, M. (2013) Thermochim. Acta 568, 185-8.", "title": "Thermal properties of 1-alkyl-3-methylpyridinium halide-based ionic  liquids"}}