{"footer": "", "solvent": null, "expmeth": "DSC/DTA", "title": "Phase transition properties: Normal melting temperature", "ref": {"full": "Chun, S.; Dzyuba, S. V.; Bartsch, R. A. (2001) Anal. Chem. 73, 3737-3741.", "title": "Influence of Structural Variation in Room-Temperature Ionic Liquids on the Selectivity and Efficiency of Competitive Alkali Metal Salt Extraction by a Crown Ether"}, "phases": ["Crystal", "Liquid"], "dhead": [["Normal melting temperature, K"]], "data": [[["287.1", "2"]]], "constr": ["Pressure of 1 atm"], "components": [{"idout": "ABQHLL", "sample": [["Source:", "synthesized by the authors"], ["Purity analysis:", "dried by vacuum heating"]], "name": "1-nonyl-3-methylimidazolium hexafluorophosphate", "formula": "C<SUB>13</SUB>H<SUB>25</SUB>F<SUB>6</SUB>N<SUB>2</SUB>P", "mw": "354.32"}]}