{"dhead": [["Normal melting temperature, K"]], "phases": ["Crystal", "Liquid"], "data": [[["350.1", "5"]]], "constr": ["Pressure of 1 atm"], "components": [{"mw": "213.75", "name": "1-hexyl-3-methylpyridinium chloride", "idout": "AApFoK", "sample": [["Source:", "synthesized by the authors"]], "formula": "C<SUB>12</SUB>H<SUB>20</SUB>ClN"}], "solvent": null, "expmeth": "Visual observation", "footer": "", "ref": {"title": "Thermal properties of 1-alkyl-3-methylpyridinium halide-based ionic  liquids", "full": "Sashina, E. S.; Kashirskii, D. A.; Janowska, G.; Zaborski, M. (2013) Thermochim. Acta 568, 185-8."}, "title": "Phase transition properties: Normal melting temperature"}