{"footer": "", "expmeth": "Visual observation", "solvent": null, "ref": {"title": "Thermal properties of 1-alkyl-3-methylpyridinium halide-based ionic  liquids", "full": "Sashina, E. S.; Kashirskii, D. A.; Janowska, G.; Zaborski, M. (2013) Thermochim. Acta 568, 185-8."}, "title": "Phase transition properties: Normal melting temperature", "components": [{"sample": [["Source:", "synthesized by the authors"]], "idout": "AAuaNt", "name": "1-octyl-3-methylpyridinium chloride", "formula": "C<SUB>14</SUB>H<SUB>24</SUB>ClN", "mw": "241.80"}], "constr": ["Pressure of 1 atm"], "phases": ["Crystal", "Liquid"], "dhead": [["Normal melting temperature, K"]], "data": [[["347.1", "5"]]]}