{"solvent": null, "expmeth": "Visual observation", "footer": "", "ref": {"full": "Sashina, E. S.; Kashirskii, D. A.; Janowska, G.; Zaborski, M. (2013) Thermochim. Acta 568, 185-8.", "title": "Thermal properties of 1-alkyl-3-methylpyridinium halide-based ionic  liquids"}, "title": "Phase transition properties: Normal melting temperature", "constr": ["Pressure of 1 atm"], "components": [{"name": "1-nonyl-3-methylpyridinium chloride", "sample": [["Source:", "synthesized by the authors"]], "idout": "AAxKbS", "formula": "C<SUB>15</SUB>H<SUB>26</SUB>ClN", "mw": "255.83"}], "dhead": [["Normal melting temperature, K"]], "phases": ["Crystal", "Liquid"], "data": [[["337.1", "5"]]]}