{"phases": ["Crystal", "Liquid"], "dhead": [["Normal melting temperature, K"]], "data": [[["328.1", "5"]]], "constr": ["Pressure of 1 atm"], "components": [{"mw": "269.86", "formula": "C<SUB>16</SUB>H<SUB>28</SUB>ClN", "idout": "AAzusk", "sample": [["Source:", "synthesized by the authors"]], "name": "1-decyl-3-methylpyridinium chloride"}], "footer": "", "expmeth": "DSC/DTA", "solvent": null, "ref": {"title": "Thermal properties of 1-alkyl-3-methylpyridinium halide-based ionic  liquids", "full": "Sashina, E. S.; Kashirskii, D. A.; Janowska, G.; Zaborski, M. (2013) Thermochim. Acta 568, 185-8."}, "title": "Phase transition properties: Normal melting temperature"}