{"constr": ["Pressure of 1 atm"], "components": [{"mw": "269.86", "sample": [["Source:", "synthesized by the authors"]], "idout": "AAzusk", "name": "1-decyl-3-methylpyridinium chloride", "formula": "C<SUB>16</SUB>H<SUB>28</SUB>ClN"}], "phases": ["Crystal", "Liquid"], "dhead": [["Normal melting temperature, K"]], "data": [[["337.1", "5"]]], "footer": "", "solvent": null, "expmeth": "Visual observation", "ref": {"full": "Sashina, E. S.; Kashirskii, D. A.; Janowska, G.; Zaborski, M. (2013) Thermochim. Acta 568, 185-8.", "title": "Thermal properties of 1-alkyl-3-methylpyridinium halide-based ionic  liquids"}, "title": "Phase transition properties: Normal melting temperature"}