{"footer": "", "solvent": null, "expmeth": "", "ref": {"full": "Coker, T. G.; Ambrose, J.; Janz, G. J. (1970) J. Am. Chem. Soc. 92, 5293-5297.", "title": "Fusion properties of some ionic quaternary ammonium compounds"}, "title": "Phase transition properties: Normal melting temperature", "components": [{"mw": "490.70", "name": "1-heptanaminium, N,N,N-triheptyl-, bromide", "idout": "ABqSaU", "sample": [["Source:", "commercial source"]], "formula": "C<SUB>28</SUB>H<SUB>60</SUB>BrN"}], "constr": ["Pressure of 1 atm"], "phases": ["Crystal 1", "Liquid"], "dhead": [["Normal melting temperature, K"]], "data": [[["369.15", "0.5"]]]}