{"dhead": [["Normal melting temperature, K"]], "phases": ["Crystal", "Liquid"], "data": [[["334.1", "1.2"]]], "components": [{"mw": "256.13", "name": "1-ethyl-3-methylimidazolium hexafluorophosphate", "idout": "AAxNWt", "sample": [["Source:", "commercial source"], ["Purification:", "stated by supplier"], ["Purity:", "99 mol %"]], "formula": "C<SUB>6</SUB>H<SUB>11</SUB>F<SUB>6</SUB>N<SUB>2</SUB>P"}], "constr": ["Pressure of 1 atm"], "solvent": null, "expmeth": "DSC/DTA", "footer": "", "ref": {"full": "Sifaoui, H.; Ait-Kaci, A.; Modarressi, A.; Rogalski, M. (2007) Thermochim. Acta 456(2), 114-119.", "title": "Solid liquid equilibria of three binary systems: {1-Ethyl-3-methylimidazolium hexafluorophosphate + 2-phenylimidazole, or 4,5-diphenylimidazole or 2,4,5-triphenylimidazole}"}, "title": "Phase transition properties: Normal melting temperature"}