{"dhead": [["Normal melting temperature, K"]], "phases": ["Crystal", "Liquid"], "data": [[["339", "2"]]], "components": [{"sample": [["Source:", "synthesized by the authors"], ["Purification:", "NMR (proton)"], ["Purity:", "98 mass %"], ["Purity analysis:", "dried by vacuum heating"]], "idout": "AAmiOP", "name": "1-ethyl-1-methylpyrrolidinium tetrafluoroborate", "formula": "C<SUB>7</SUB>H<SUB>16</SUB>BF<SUB>4</SUB>N", "mw": "201.02"}], "constr": ["Pressure of 1 atm"], "solvent": null, "expmeth": "DSC/DTA", "footer": "", "title": "Phase transition properties: Normal melting temperature", "ref": {"title": "Eutectic mixtures of pyrrolidinium-based ionic liquids", "full": "Stolarska, O.; Rodriguez, H.; Smiglak, M. (2016) Fluid Phase Equilib. 408, 1-9."}}