{"solvent": null, "expmeth": "", "footer": "", "ref": {"full": "Sudholter, E. J. R.; Engberts, J. B. F. N.; de Jeu, W. H. (1982) J. Phys. Chem. 86, 1908-13.", "title": "Thermotropic liquid-crystalline behavior of some single- and double-chained pyridinium amphiphiles"}, "title": "Phase transition properties: Normal melting temperature", "constr": ["Pressure of 1 atm"], "components": [{"formula": "C<SUB>17</SUB>H<SUB>30</SUB>IN", "name": "4-dodecylpyridium iodide", "sample": [["Source:", "synthesized by the authors"]], "idout": "ABUJiX", "mw": "375.34"}], "dhead": [["Normal melting temperature, K"]], "phases": ["Crystal", "Liquid"], "data": [[["365.4", "1"]]]}