{"data": [[["392.6", "1.5"]]], "phases": ["Crystal", "Liquid"], "dhead": [["Normal melting temperature, K"]], "constr": ["Pressure of 1 atm"], "components": [{"formula": "C<SUB>14</SUB>H<SUB>24</SUB>ClN", "name": "4-nonylpyridium chloride", "sample": [["Source:", "synthesized by the authors"]], "idout": "AAuawI", "mw": "241.80"}], "ref": {"full": "Sudholter, E. J. R.; Engberts, J. B. F. N.; de Jeu, W. H. (1982) J. Phys. Chem. 86, 1908-13.", "title": "Thermotropic liquid-crystalline behavior of some single- and double-chained pyridinium amphiphiles"}, "title": "Phase transition properties: Normal melting temperature", "footer": "", "solvent": null, "expmeth": ""}