{"expmeth": "", "solvent": null, "footer": "", "title": "Phase transition properties: Normal melting temperature", "ref": {"title": "A differential thermal analysis study of phase transitions in some mercury(II) carboxylates", "full": "Adeosun, S. O. (1978) J. Therm. Anal. 14, 235-43."}, "constr": ["Pressure of 1 atm"], "components": [{"name": "palmitic acid, mercury(2+) salt", "sample": [["Source:", "synthesized by the authors"], ["Purification:", "spectroscopy"], ["Purity analysis:", "chemical reagent treatment"]], "idout": "ACgqtl", "formula": "C<SUB>32</SUB>H<SUB>62</SUB>HgO<SUB>4</SUB>", "mw": "711.44"}], "dhead": [["Normal melting temperature, K"]], "phases": ["Crystal 1", "Liquid"], "data": [[["390.3", "0.2"]]]}