{"phases": ["Crystal 1", "Liquid"], "dhead": [["Normal melting temperature, K"]], "data": [[["381.15", "0.5"]]], "components": [{"formula": "C<SUB>25</SUB>H<SUB>54</SUB>BrN", "sample": [["Source:", "synthesized by others"], ["Purity analysis:", "purification method described elsewhere"]], "idout": "ABiOEk", "name": "N,N,N-trihexylheptan-1-aminium bromide", "mw": "448.62"}], "constr": ["Pressure of 1 atm"], "footer": "", "solvent": null, "expmeth": "", "title": "Phase transition properties: Normal melting temperature", "ref": {"full": "Coker, T. G.; Ambrose, J.; Janz, G. J. (1970) J. Am. Chem. Soc. 92, 5293-5297.", "title": "Fusion properties of some ionic quaternary ammonium compounds"}}