{"footer": "", "solvent": null, "expmeth": "", "title": "Phase transition properties: Normal melting temperature", "ref": {"full": "Sudholter, E. J. R.; Engberts, J. B. F. N.; de Jeu, W. H. (1982) J. Phys. Chem. 86, 1908-13.", "title": "Thermotropic liquid-crystalline behavior of some single- and double-chained pyridinium amphiphiles"}, "phases": ["Crystal 1", "Liquid"], "dhead": [["Normal melting temperature, K"]], "data": [[["386.15", "0.6"]]], "constr": ["Pressure of 1 atm"], "components": [{"formula": "C<SUB>18</SUB>H<SUB>32</SUB>IN", "sample": [["Source:", "synthesized by the authors"]], "idout": "ABWtpy", "name": "4-dodecyl-1-methylpyridinium iodide", "mw": "389.37"}]}