{"data": [[["365.9", "3"]]], "dhead": [["Normal melting temperature, K"]], "phases": ["Crystal 1", "Liquid"], "constr": ["Pressure of 1 atm"], "components": [{"mw": "361.91", "formula": "C<SUB>18</SUB>H<SUB>32</SUB>ClNO<SUB>4</SUB>", "name": "4-dodecyl-1-methylpyridinium perchlorate", "sample": [["Source:", "synthesized by the authors"]], "idout": "ABRfFU"}], "ref": {"title": "Thermotropic liquid-crystalline behavior of some single- and double-chained pyridinium amphiphiles", "full": "Sudholter, E. J. R.; Engberts, J. B. F. N.; de Jeu, W. H. (1982) J. Phys. Chem. 86, 1908-13."}, "title": "Phase transition properties: Normal melting temperature", "solvent": null, "expmeth": "", "footer": ""}