{"title": "Phase transition properties: Normal melting temperature", "ref": {"title": "Thermotropic liquid-crystalline behavior of some single- and double-chained pyridinium amphiphiles", "full": "Sudholter, E. J. R.; Engberts, J. B. F. N.; de Jeu, W. H. (1982) J. Phys. Chem. 86, 1908-13."}, "footer": "", "expmeth": "", "solvent": null, "data": [[["345.1", "1"]]], "phases": ["Crystal 1", "Liquid"], "dhead": [["Normal melting temperature, K"]], "constr": ["Pressure of 1 atm"], "components": [{"formula": "C<SUB>39</SUB>H<SUB>74</SUB>IN", "name": "pyridinium, 4-(1-hexadecylheptadecyl)-1-methyl-, iodide", "sample": [["Source:", "synthesized by the authors"]], "idout": "ACbbuy", "mw": "683.93"}]}