{"data": [[["397.1", "2"]]], "phases": ["Crystal", "Liquid"], "dhead": [["Normal melting temperature, K"]], "constr": ["Pressure of 1 atm"], "components": [{"mw": "283.88", "formula": "C<SUB>17</SUB>H<SUB>30</SUB>ClN", "name": "4-dodecylpyridium chloride", "sample": [["Source:", "synthesized by the authors"]], "idout": "ABCehN"}], "ref": {"full": "Sudholter, E. J. R.; Engberts, J. B. F. N.; de Jeu, W. H. (1982) J. Phys. Chem. 86, 1908-13.", "title": "Thermotropic liquid-crystalline behavior of some single- and double-chained pyridinium amphiphiles"}, "title": "Phase transition properties: Normal melting temperature", "footer": "", "expmeth": "", "solvent": null}