{"footer": "", "solvent": null, "expmeth": "DSC/DTA", "ref": {"full": "Sun, J.; Forsyth, M.; MacFarlane, D. R. (1998) J. Phys. Chem. B 102, 8858-8864.", "title": "Room-Temperature Molten Salts Based on the Quaternary Ammonium Ion"}, "title": "Phase transition properties: Normal melting temperature", "constr": ["Pressure of 1 atm"], "components": [{"mw": "466.50", "formula": "C<SUB>14</SUB>H<SUB>28</SUB>F<SUB>6</SUB>N<SUB>2</SUB>O<SUB>4</SUB>S<SUB>2</SUB>", "name": "tetrapropylammonium bis[(trifluoromethyl)sulfonyl]imide", "idout": "ABlkRG", "sample": [["Source:", "synthesized by the authors"], ["Purification:", "Karl Fischer titration"], ["Purity:", "0.1 water mass %(de-gassed by evacuation)"]]}], "phases": ["Crystal", "Liquid"], "dhead": [["Normal melting temperature, K"]], "data": [[["378.1", "2"]]]}