{"constr": ["Pressure of 1 atm"], "components": [{"formula": "C<SUB>20</SUB>H<SUB>36</SUB>F<SUB>9</SUB>NO<SUB>6</SUB>S<SUB>3</SUB>", "idout": "ACVkfg", "sample": [["Source:", "synthesized by the authors"], ["Purification:", "Karl Fischer titration"], ["Purity:", "0.1 water mass %(de-gassed by evacuation)"]], "name": "tetrabutylammonium tris[(trifluoromethyl)sulfonyl]methide", "mw": "653.67"}], "dhead": [["Normal melting temperature, K"]], "phases": ["Crystal", "Liquid"], "data": [[["369.1", "2"]]], "expmeth": "DSC/DTA", "solvent": null, "footer": "", "ref": {"title": "Room-Temperature Molten Salts Based on the Quaternary Ammonium Ion", "full": "Sun, J.; Forsyth, M.; MacFarlane, D. R. (1998) J. Phys. Chem. B 102, 8858-8864."}, "title": "Phase transition properties: Normal melting temperature"}