{"footer": "", "expmeth": "", "solvent": null, "title": "Phase transition properties: Normal melting temperature", "ref": {"title": "Fusion properties of some ionic quaternary ammonium compounds", "full": "Coker, T. G.; Ambrose, J.; Janz, G. J. (1970) J. Am. Chem. Soc. 92, 5293-5297."}, "phases": ["Crystal 1", "Liquid"], "dhead": [["Normal melting temperature, K"]], "data": [[["371.15", "0.5"]]], "constr": ["Pressure of 1 atm"], "components": [{"mw": "495.62", "name": "1-heptanaminium, N,N,N-trihexyl- iodide", "idout": "ABrQSC", "sample": [["Source:", "synthesized by others"], ["Purity analysis:", "crystallization from solution"]], "formula": "C<SUB>25</SUB>H<SUB>54</SUB>IN"}]}