{"data": [[["359.1", "2"]]], "phases": ["Crystal", "Liquid"], "dhead": [["Normal melting temperature, K"]], "constr": ["Pressure of 1 atm"], "components": [{"mw": "162.62", "sample": [["Source:", "synthesized by the authors"], ["Purification:", "estimated by the compiler"], ["Purity:", "97 mass %"]], "idout": "AAfOwc", "name": "1-(2-hydroxyethyl)-3-methyl-1H-imidazolium chloride", "formula": "C<SUB>6</SUB>H<SUB>11</SUB>ClN<SUB>2</SUB>O"}], "ref": {"full": "Sun, J.; Zhang, S.; Cheng, W.; Ren, J. (2008) Tetrahedron Lett. 49, 3588-3591.", "title": "Hydroxyl-functionalized ionic liquid: a novel efficient catalyst for chemical fixation of CO2 to cyclic carbonate"}, "title": "Phase transition properties: Normal melting temperature", "footer": "", "solvent": null, "expmeth": "Visual observation"}