{"expmeth": "Visual observation", "solvent": null, "footer": "", "title": "Phase transition properties: Normal melting temperature", "ref": {"full": "Takaizumi, K.; Wakabayashi, T. (1980) J. Solution Chem. 9(11), 809-818.", "title": "Apparent Molal Volumes of Phosphonium Halides at 15, 25 and 35 degC"}, "dhead": [["Normal melting temperature, K"]], "phases": ["Crystal", "Liquid"], "data": [[["378.65", "0.5"]]], "constr": ["Pressure of 1 atm"], "components": [{"idout": "ABNNKc", "sample": [["Source:", "synthesized by the authors"], ["Purification:", "chemical analysis"], ["Purity:", "99.7 mass %"]], "name": "tetrabutylphosphonium bromide", "formula": "C<SUB>16</SUB>H<SUB>36</SUB>BrP", "mw": "339.34"}]}