{"footer": "", "expmeth": "DSC/DTA", "solvent": null, "title": "Phase transition properties: Normal melting temperature", "ref": {"full": "Tao, R.; Tamas, G.; Xue, L.; Simon, S.; Quitevis, E. (2014) J. Chem. Eng. Data 59(9), 2717-2724.", "title": "Thermophysical Properties of Imidazolium-Based Ionic Liquids: The Effect of Aliphatic versus Aromatic Functionality"}, "constr": ["Pressure of 1 atm"], "components": [{"mw": "529.47", "formula": "C<SUB>19</SUB>H<SUB>17</SUB>F<SUB>6</SUB>N<SUB>3</SUB>O<SUB>4</SUB>S<SUB>2</SUB>", "name": "1,3-dibenzyl-1H-imidazol-3-ium bis((trifluoromethyl)sulfonyl)amide", "sample": [["Source:", "synthesized by the authors"], ["Initial purification:", "estimated by the compiler"], ["Initial purity:", "99 mass %"], ["Final purification:", "Karl Fischer titration"], ["Final purity:", "0.0125 water mass %(dried by vacuum heating)"]], "idout": "ABxquS"}], "phases": ["Crystal", "Liquid"], "dhead": [["Normal melting temperature, K"]], "data": [[["314.9", "1.3"]]]}