{"footer": "", "expmeth": "DSC/DTA", "solvent": null, "ref": {"title": "How Ionic Are Room-Temperature Ionic Liquids? An Indicator of the Physicochemical Properties", "full": "Tokuda, H.; Tsuzuki, S.; Susan, M. A. B. H.; Hayamizu, K.; Watanabe, M. (2006) J. Phys. Chem. B 110(39), 19593-19600."}, "title": "Phase transition properties: Normal melting temperature", "phases": ["Crystal", "Liquid"], "dhead": [["Normal melting temperature, K"]], "data": [[["270.1", "6"]]], "components": [{"idout": "ABchaf", "sample": [["Source:", "synthesized by the authors"], ["Purification:", "mass spectrometry;Karl Fischer titration"], ["Purity:", "99 mol %;0.004 water mass %(dried by vacuum heating)"]], "name": "1-butyl-3-methylimidazolium bis(trifluoromethylsulfonyl)imide", "formula": "C<SUB>10</SUB>H<SUB>15</SUB>F<SUB>6</SUB>N<SUB>3</SUB>O<SUB>4</SUB>S<SUB>2</SUB>", "mw": "419.36"}], "constr": ["Pressure of 1 atm"]}