{"data": [[["255.2", "2"]]], "phases": ["Metastable crystal", "Liquid"], "dhead": [["Normal melting temperature, K"]], "components": [{"mw": "391.30", "idout": "ABXNPV", "sample": [["Source:", "synthesized by the authors"], ["Purification:", "mass spectrometry;Karl Fischer titration"], ["Purity:", "99 mol %;0.004 water mass %(dried by vacuum heating)"]], "name": "1-ethyl-3-methylimidazolium bis[(trifluoromethyl)sulfonyl]imide", "formula": "C<SUB>8</SUB>H<SUB>11</SUB>F<SUB>6</SUB>N<SUB>3</SUB>O<SUB>4</SUB>S<SUB>2</SUB>"}], "constr": ["Pressure of 1 atm"], "title": "Phase transition properties: Normal melting temperature", "ref": {"title": "How Ionic Are Room-Temperature Ionic Liquids? An Indicator of the Physicochemical Properties", "full": "Tokuda, H.; Tsuzuki, S.; Susan, M. A. B. H.; Hayamizu, K.; Watanabe, M. (2006) J. Phys. Chem. B 110(39), 19593-19600."}, "footer": "", "expmeth": "DSC/DTA", "solvent": null}