{"title": "Phase transition properties: Normal melting temperature", "ref": {"title": "Fusion properties of some ionic quaternary ammonium compounds", "full": "Coker, T. G.; Ambrose, J.; Janz, G. J. (1970) J. Am. Chem. Soc. 92, 5293-5297."}, "expmeth": "", "solvent": null, "footer": "", "components": [{"name": "tetrahexylammonium bromide", "sample": [["Source:", "commercial source"]], "idout": "ABfdKT", "formula": "C<SUB>24</SUB>H<SUB>52</SUB>BrN", "mw": "434.59"}], "constr": ["Pressure of 1 atm"], "data": [[["377.15", "0.5"]]], "dhead": [["Normal melting temperature, K"]], "phases": ["Crystal 1", "Liquid"]}