{"footer": "", "expmeth": "DSC/DTA", "solvent": null, "title": "Phase transition properties: Normal melting temperature", "ref": {"title": "How Ionic Are Room-Temperature Ionic Liquids? An Indicator of the Physicochemical Properties", "full": "Tokuda, H.; Tsuzuki, S.; Susan, M. A. B. H.; Hayamizu, K.; Watanabe, M. (2006) J. Phys. Chem. B 110(39), 19593-19600."}, "phases": ["Crystal", "Liquid"], "dhead": [["Normal melting temperature, K"]], "data": [[["299.1", "6"]]], "constr": ["Pressure of 1 atm"], "components": [{"formula": "C<SUB>7</SUB>H<SUB>9</SUB>F<SUB>6</SUB>N<SUB>3</SUB>O<SUB>4</SUB>S<SUB>2</SUB>", "name": "1,3-dimethylimidazolium bis((trifluoromethyl)sulfonyl)amide", "idout": "ABUcGF", "sample": [["Source:", "synthesized by the authors"], ["Purification:", "mass spectrometry;Karl Fischer titration"], ["Purity:", "99 mol %;0.004 water mass %(dried by vacuum heating)"]], "mw": "377.28"}]}