{"footer": "", "solvent": null, "expmeth": "Adiabatic calorimetry", "title": "Phase transition properties: Normal melting temperature", "ref": {"title": "Thermochemistry of Alkyl Pyridinium Bromide Ionic Liquids: Calorimetric Measurements and Calculations", "full": "Tong, B.; Liu, Q.-S.; Tan, Z.-C.; Welz-Biermann, U. (2010) J. Phys. Chem. A 114, 3782-3787."}, "phases": ["Crystal", "Liquid"], "dhead": [["Normal melting temperature, K"]], "data": [[["391.31", "0.56"]]], "components": [{"formula": "C<SUB>7</SUB>H<SUB>10</SUB>BrN", "name": "1-ethylpyridinium bromide", "sample": [["Source:", "synthesized by the authors"], ["Purification:", "estimated by the compiler"], ["Purity:", "98 mass %(crystallization from solution;dried by vacuum heating)"]], "idout": "AAkIZc", "mw": "188.07"}], "constr": ["Pressure of 1 atm"]}