{"phases": ["Crystal", "Liquid"], "dhead": [["Normal melting temperature, K"]], "data": [[["296.2", "2"]]], "components": [{"formula": "C<SUB>15</SUB>H<SUB>27</SUB>F<SUB>3</SUB>N<SUB>2</SUB>O<SUB>3</SUB>S", "idout": "ABTgbZ", "sample": [["Source:", "commercial source"], ["Initial purification:", "stated by supplier"], ["Initial purity:", "98 mass %"], ["Final purification:", "Karl Fischer titration"], ["Final purity:", "0.03 water mass %(de-gassed by evacuation;dried by vacuum heating)"]], "name": "1-decyl-3-methylimidazolium trifluoromethansulfate", "mw": "372.45"}], "constr": ["Pressure of 1 atm"], "footer": "", "solvent": null, "expmeth": "DSC/DTA", "title": "Phase transition properties: Normal melting temperature", "ref": {"title": "Liquid-Liquid Equilibrium of Mixtures of Imidazolium-Based Ionic Liquids with Propanediols or Glycerol", "full": "Trindade, C. A. S.; Visak, Z. P.; Bogel-Lsukasik, R.; Bogel-Lsukasik, E.; Ponte, M. N. d. (2010) Ind. Eng. Chem. Res. 49(10), 4850-4857."}}