{"ref": {"full": "Van Valkenburg, M. E.; Vaughn, R. L.; Williams, M.; Wilkes, J. S. (2005) Thermochim. Acta 425(1-2), 181-188.", "title": "Thermochemistry of ionic liquid heat-transfer fluids"}, "title": "Phase transition properties: Normal melting temperature", "footer": "", "solvent": null, "expmeth": "DSC/DTA", "data": [[["287.6", "1.1"]]], "phases": ["Crystal", "Liquid"], "dhead": [["Normal melting temperature, K"]], "constr": ["Pressure of 1 atm"], "components": [{"mw": "197.97", "sample": [["Source:", "synthesized by the authors"], ["Purification:", "spectroscopy;Karl Fischer titration;acid-base titration"], ["Purity:", "99 mol %;0.065 water mass %;0.113 halide impurity mass %"]], "idout": "AAmDrr", "name": "1-ethyl-3-methylimidazolium tetrafluoroborate", "formula": "C<SUB>6</SUB>H<SUB>11</SUB>BF<SUB>4</SUB>N<SUB>2</SUB>"}]}