{"data": [[["399.15", "0.5"]]], "phases": ["Crystal 1", "Liquid"], "dhead": [["Normal melting temperature, K"]], "components": [{"name": "N,N,N-triheptylheptan-1-aminium perchlorate", "idout": "ABuGHX", "sample": [["Source:", "synthesized by others"], ["Purity analysis:", "crystallization from solution"]], "formula": "C<SUB>28</SUB>H<SUB>60</SUB>ClNO<SUB>4</SUB>", "mw": "510.24"}], "constr": ["Pressure of 1 atm"], "ref": {"title": "Fusion properties of some ionic quaternary ammonium compounds", "full": "Coker, T. G.; Ambrose, J.; Janz, G. J. (1970) J. Am. Chem. Soc. 92, 5293-5297."}, "title": "Phase transition properties: Normal melting temperature", "footer": "", "solvent": null, "expmeth": ""}