{"solvent": null, "expmeth": "DSC/DTA", "footer": "", "ref": {"full": "Vieira, N. S. M.; Luis, A.; Reis, P. M.; Carvalho, P. J.; Lopes-da-Silva, J. A.; Esperanca, J. M. S. S.; Araujo, J. M. M.; Rebelo, L. P. N.; Freire, M. G.; Pereiro, A. B. (2016) J. Chem. Thermodyn. 97, 354-361.", "title": "Fluorination effects on the thermodynamic, thermophysical and surface properties of ionic liquids"}, "title": "Phase transition properties: Normal melting temperature", "dhead": [["Normal melting temperature, K"]], "phases": ["Crystal", "Liquid"], "data": [[["303", "4"]]], "components": [{"mw": "684.36", "name": "cholinium bis(nonafluorobutylsulfonyl)imide", "idout": "ACbfCu", "sample": [["Source:", "commercial source"], ["Initial purification:", "stated by supplier"], ["Initial purity:", "97 mass %"], ["Final purification:", "ion chromatography;Karl Fischer titration"], ["Final purity:", "0.085 halide impurity mol %;0.01 water mass %(dried by vacuum heating)"]], "formula": "C<SUB>13</SUB>H<SUB>14</SUB>F<SUB>18</SUB>N<SUB>2</SUB>O<SUB>5</SUB>S<SUB>2</SUB>"}], "constr": ["Pressure of 1 atm"]}