{"constr": ["Pressure of 1 atm"], "components": [{"formula": "C<SUB>9</SUB>H<SUB>14</SUB>F<SUB>9</SUB>NO<SUB>4</SUB>S", "idout": "ABZcDG", "sample": [["Source:", "commercial source"], ["Initial purification:", "stated by supplier"], ["Initial purity:", "97 mass %"], ["Final purification:", "ion chromatography;Karl Fischer titration"], ["Final purity:", "0.326 halide impurity mol %;0.01 water mass %(dried by vacuum heating)"]], "name": "cholinium perfluorobutanesulfonate", "mw": "403.26"}], "phases": ["Crystal", "Liquid"], "dhead": [["Normal melting temperature, K"]], "data": [[["436", "4"]]], "footer": "", "solvent": null, "expmeth": "DSC/DTA", "ref": {"title": "Fluorination effects on the thermodynamic, thermophysical and surface properties of ionic liquids", "full": "Vieira, N. S. M.; Luis, A.; Reis, P. M.; Carvalho, P. J.; Lopes-da-Silva, J. A.; Esperanca, J. M. S. S.; Araujo, J. M. M.; Rebelo, L. P. N.; Freire, M. G.; Pereiro, A. B. (2016) J. Chem. Thermodyn. 97, 354-361."}, "title": "Phase transition properties: Normal melting temperature"}