{"dhead": [["Normal melting temperature, K"]], "phases": ["Crystal", "Liquid"], "data": [[["280", "1"]]], "components": [{"formula": "C<SUB>14</SUB>H<SUB>27</SUB>BF<SUB>4</SUB>N<SUB>2</SUB>", "name": "1-decyl-3-methylimidazolium tetrafluoroborate", "idout": "ABHhuP", "sample": [["Source:", "commercial source"], ["Initial purification:", "stated by supplier"], ["Initial purity:", "98 mass %"], ["Final purification:", "Karl Fischer titration"], ["Final purity:", "0.1 water mass %"]], "mw": "310.19"}], "constr": ["Pressure of 1 atm"], "solvent": null, "expmeth": "Visual observation", "footer": "", "ref": {"title": "Liquid-solid-liquid phase transition hysteresis loops in the ionic conductivity of ten imidazolium-based ionic liquids", "full": "Vila, J.; Fernandez-Castro, B.; Rilo, E.; Carrete, J.; Dominguez-Perez, M.; Rodriguez, J. R.; Garcia, M.; Varela, L. M.; Cabeza, O. (2012) Fluid Phase Equilib. 320, 1-10."}, "title": "Phase transition properties: Normal melting temperature"}