{"components": [{"mw": "338.24", "name": "1-dodecyl-3-methylimidazolium tetrafluoroborate", "sample": [["Source:", "commercial source"], ["Initial purification:", "stated by supplier"], ["Initial purity:", "98 mass %"], ["Final purification:", "Karl Fischer titration"], ["Final purity:", "0.1 water mass %"]], "idout": "ABNCyU", "formula": "C<SUB>16</SUB>H<SUB>31</SUB>BF<SUB>4</SUB>N<SUB>2</SUB>"}], "constr": ["Pressure of 1 atm"], "dhead": [["Normal melting temperature, K"]], "phases": ["Crystal", "Liquid"], "data": [[["305", "1"]]], "expmeth": "Visual observation", "solvent": null, "footer": "", "ref": {"full": "Vila, J.; Fernandez-Castro, B.; Rilo, E.; Carrete, J.; Dominguez-Perez, M.; Rodriguez, J. R.; Garcia, M.; Varela, L. M.; Cabeza, O. (2012) Fluid Phase Equilib. 320, 1-10.", "title": "Liquid-solid-liquid phase transition hysteresis loops in the ionic conductivity of ten imidazolium-based ionic liquids"}, "title": "Phase transition properties: Normal melting temperature"}