{"title": "Phase transition properties: Normal melting temperature", "ref": {"full": "Coker, T. G.; Ambrose, J.; Janz, G. J. (1970) J. Am. Chem. Soc. 92, 5293-5297.", "title": "Fusion properties of some ionic quaternary ammonium compounds"}, "footer": "", "solvent": null, "expmeth": "", "data": [[["378.15", "0.5"]]], "phases": ["Crystal 1", "Liquid"], "dhead": [["Normal melting temperature, K"]], "constr": ["Pressure of 1 atm"], "components": [{"mw": "482.19", "formula": "C<SUB>26</SUB>H<SUB>56</SUB>ClNO<SUB>4</SUB>", "sample": [["Source:", "synthesized by others"], ["Purity analysis:", "crystallization from solution"]], "idout": "ABolxH", "name": "1-heptanaminium, N-heptyl-N,N-dihexyl- perchlorate"}]}