{"constr": ["Pressure of 1 atm"], "components": [{"mw": "238.07", "name": "1-ethyl-3-methylimidazolium iodide", "sample": [["Source:", "commercial source"], ["Initial purification:", "stated by supplier"], ["Initial purity:", "98 mass %"], ["Final purification:", "Karl Fischer titration"], ["Final purity:", "0.5 water mass %"]], "idout": "AAtoSj", "formula": "C<SUB>6</SUB>H<SUB>11</SUB>IN<SUB>2</SUB>"}], "dhead": [["Normal melting temperature, K"]], "phases": ["Crystal", "Liquid"], "data": [[["350", "1"]]], "expmeth": "Visual observation", "solvent": null, "footer": "", "title": "Phase transition properties: Normal melting temperature", "ref": {"title": "Liquid-solid-liquid phase transition hysteresis loops in the ionic conductivity of ten imidazolium-based ionic liquids", "full": "Vila, J.; Fernandez-Castro, B.; Rilo, E.; Carrete, J.; Dominguez-Perez, M.; Rodriguez, J. R.; Garcia, M.; Varela, L. M.; Cabeza, O. (2012) Fluid Phase Equilib. 320, 1-10."}}