{"phases": ["Crystal", "Liquid"], "dhead": [["Normal melting temperature, K"]], "data": [[["289.1", "2"]]], "components": [{"mw": "491.32", "formula": "C<SUB>10</SUB>H<SUB>11</SUB>F<SUB>10</SUB>N<SUB>3</SUB>O<SUB>4</SUB>S<SUB>2</SUB>", "idout": "ABqZgU", "sample": [["Source:", "commercial source"], ["Purification:", "stated by supplier"], ["Purity:", "98 mass %"], ["Purity analysis:", "none used"]], "name": "1-ethyl-3-methylimidazolium 1,1,2,2,2-pentafluoro-N-[(pentafluoroethyl)sulfonyl]ethanesulfonamide"}], "constr": ["Pressure of 1 atm"], "footer": "", "expmeth": "DSC/DTA", "solvent": null, "title": "Phase transition properties: Normal melting temperature", "ref": {"title": "Liquid range temperature of ionic liquids as potential working fluids for absorption heat pumps", "full": "Villanueva, M.; Parajo, J. J.; Sanchez, P. B.; Garcia, J.; Salgado, J. (2015) J. Chem. Thermodyn. 91, 127-135."}}