{"ref": {"full": "Villanueva, M.; Parajo, J. J.; Sanchez, P. B.; Garcia, J.; Salgado, J. (2015) J. Chem. Thermodyn. 91, 127-135.", "title": "Liquid range temperature of ionic liquids as potential working fluids for absorption heat pumps"}, "title": "Phase transition properties: Normal melting temperature", "footer": "", "solvent": null, "expmeth": "DSC/DTA", "data": [[["335.1", "2"]]], "phases": ["Crystal", "Liquid"], "dhead": [["Normal melting temperature, K"]], "components": [{"formula": "C<SUB>8</SUB>H<SUB>13</SUB>NO<SUB>3</SUB>S", "idout": "AAnEun", "sample": [["Source:", "commercial source"], ["Purification:", "stated by supplier"], ["Purity:", "95 mass %"], ["Purity analysis:", "none used"]], "name": "1-ethylpyridinium methanesulfonate", "mw": "203.26"}], "constr": ["Pressure of 1 atm"]}