{"phases": ["Crystal 1", "Liquid"], "dhead": [["Normal melting temperature, K"]], "data": [[["305.1", "2"]]], "constr": ["Pressure of 1 atm"], "components": [{"mw": "388.30", "formula": "C<SUB>9</SUB>H<SUB>10</SUB>F<SUB>6</SUB>N<SUB>2</SUB>O<SUB>4</SUB>S<SUB>2</SUB>", "sample": [["Source:", "commercial source"], ["Purification:", "stated by supplier"], ["Purity:", "99 mass %"], ["Purity analysis:", "none used"]], "idout": "ABWiAS", "name": "1-ethylpyridinium bis[(trifluoromethyl)sulfonyl]imide"}], "footer": "", "expmeth": "DSC/DTA", "solvent": null, "title": "Phase transition properties: Normal melting temperature", "ref": {"title": "Liquid range temperature of ionic liquids as potential working fluids for absorption heat pumps", "full": "Villanueva, M.; Parajo, J. J.; Sanchez, P. B.; Garcia, J.; Salgado, J. (2015) J. Chem. Thermodyn. 91, 127-135."}}