{"ref": {"title": "Fusion properties of some ionic quaternary ammonium compounds", "full": "Coker, T. G.; Ambrose, J.; Janz, G. J. (1970) J. Am. Chem. Soc. 92, 5293-5297."}, "title": "Phase transition properties: Normal melting temperature", "expmeth": "", "solvent": null, "footer": "", "data": [[["373.15", "0.5"]]], "dhead": [["Normal melting temperature, K"]], "phases": ["Crystal 1", "Liquid"], "components": [{"formula": "C<SUB>26</SUB>H<SUB>56</SUB>IN", "sample": [["Source:", "synthesized by others"], ["Purity analysis:", "crystallization from solution"]], "idout": "ABuAZH", "name": "1-heptanaminium, N-heptyl-N,N-dihexyl- iodide", "mw": "509.65"}], "constr": ["Pressure of 1 atm"]}