{"data": [[["262.23", "0.6"]]], "phases": ["Crystal", "Liquid"], "dhead": [["Normal melting temperature, K"]], "constr": ["Pressure of 1 atm"], "components": [{"name": "1-ethyl-3-methylimidazolium trifluoromethanesulfonate", "sample": [["Source:", "commercial source"], ["Purification:", "Karl Fischer titration"], ["Purity:", "0.001 water mass %"]], "idout": "AAyCHW", "formula": "C<SUB>7</SUB>H<SUB>11</SUB>F<SUB>3</SUB>N<SUB>2</SUB>O<SUB>3</SUB>S", "mw": "260.23"}], "ref": {"title": "Efficient determination of crystallisation and melting points at low cooling and heating rates with novel computer controlled equipment", "full": "Wachter, P.; Schweiger, H.-G.; Wudy, F.; Gores, H. J. (2008) J. Chem. Thermodyn. 40(10), 1542-1547."}, "title": "Phase transition properties: Normal melting temperature", "footer": "", "expmeth": "Heating/Cooling curves", "solvent": null}