{"phases": ["Crystal", "Liquid"], "dhead": [["Normal melting temperature, K"]], "data": [[["277.56", "0.8"]]], "components": [{"mw": "291.33", "name": "1-butyl-1-methylpyrrolidinium trifluoromethanesulfonate", "idout": "ABEBJM", "sample": [["Source:", "commercial source"], ["Purification:", "estimated by the compiler"], ["Purity:", "98 mass %"], ["Purity analysis:", "de-gassed by evacuation"]], "formula": "C<SUB>10</SUB>H<SUB>20</SUB>F<SUB>3</SUB>NO<SUB>3</SUB>S"}], "constr": ["Pressure of 1 atm"], "footer": "", "expmeth": "Heating/Cooling curves", "solvent": null, "ref": {"title": "Determination of phase transition points of ionic liquids by combination of thermal analysis and conductivity measurements at very low heating and cooling rates", "full": "Wachter, P.; Schreiner, C.; Schweiger, H.-G.; Gores, H. J. (2010) J. Chem. Thermodyn. 42(7), 900-903."}, "title": "Phase transition properties: Normal melting temperature"}