{"components": [{"mw": "587.28", "name": "1-butyl-1-methylpyrrolidinium tris(pentafluoroethyl)trifluorophosphate", "idout": "ACIwvt", "sample": [["Source:", "commercial source"], ["Initial purification:", "estimated by the compiler"], ["Initial purity:", "98 mass %"], ["Final purification:", "Karl Fischer titration"], ["Final purity:", "0.0041 water mass %(de-gassed by evacuation)"]], "formula": "C<SUB>15</SUB>H<SUB>20</SUB>F<SUB>18</SUB>NP"}], "constr": ["Pressure of 1 atm"], "phases": ["Crystal", "Liquid"], "dhead": [["Normal melting temperature, K"]], "data": [[["275.1", "1"]]], "footer": "", "solvent": null, "expmeth": "Heating/Cooling curves", "title": "Phase transition properties: Normal melting temperature", "ref": {"title": "Determination of phase transition points of ionic liquids by combination of thermal analysis and conductivity measurements at very low heating and cooling rates", "full": "Wachter, P.; Schreiner, C.; Schweiger, H.-G.; Gores, H. J. (2010) J. Chem. Thermodyn. 42(7), 900-903."}}