{"phases": ["Crystal", "Liquid"], "dhead": [["Normal melting temperature, K"]], "data": [[["275.9", "1"]]], "components": [{"formula": "C<SUB>15</SUB>H<SUB>20</SUB>F<SUB>18</SUB>NP", "name": "1-butyl-1-methylpyrrolidinium tris(pentafluoroethyl)trifluorophosphate", "sample": [["Source:", "commercial source"], ["Initial purification:", "estimated by the compiler"], ["Initial purity:", "98 mass %"], ["Final purification:", "Karl Fischer titration"], ["Final purity:", "0.0041 water mass %(de-gassed by evacuation)"]], "idout": "ACIwvt", "mw": "587.28"}], "constr": ["Pressure of 1 atm"], "footer": "", "solvent": null, "expmeth": "from temp. dependence of electrical conductivity", "ref": {"full": "Wachter, P.; Schreiner, C.; Schweiger, H.-G.; Gores, H. J. (2010) J. Chem. Thermodyn. 42(7), 900-903.", "title": "Determination of phase transition points of ionic liquids by combination of thermal analysis and conductivity measurements at very low heating and cooling rates"}, "title": "Phase transition properties: Normal melting temperature"}