{"constr": ["Pressure of 1 atm"], "components": [{"mw": "252.10", "idout": "AAwYkb", "sample": [["Source:", "synthesized by the authors"], ["Initial purification:", "estimated by the compiler"], ["Initial purity:", "97 mass %"], ["Final purification:", "Karl Fischer titration"], ["Final purity:", "0.0075 water mass %(de-gassed by evacuation)"]], "name": "1-methyl-3-propylimidazolium iodide", "formula": "C<SUB>7</SUB>H<SUB>13</SUB>IN<SUB>2</SUB>"}], "phases": ["Crystal", "Liquid"], "dhead": [["Normal melting temperature, K"]], "data": [[["291.4", "1"]]], "footer": "", "solvent": null, "expmeth": "from temp. dependence of electrical conductivity", "title": "Phase transition properties: Normal melting temperature", "ref": {"full": "Wachter, P.; Schreiner, C.; Schweiger, H.-G.; Gores, H. J. (2010) J. Chem. Thermodyn. 42(7), 900-903.", "title": "Determination of phase transition points of ionic liquids by combination of thermal analysis and conductivity measurements at very low heating and cooling rates"}}