{"phases": ["Crystal 4", "Liquid"], "dhead": [["Normal melting temperature, K"]], "data": [[["256", "0.8"]]], "constr": ["Pressure of 1 atm"], "components": [{"mw": "391.30", "formula": "C<SUB>8</SUB>H<SUB>11</SUB>F<SUB>6</SUB>N<SUB>3</SUB>O<SUB>4</SUB>S<SUB>2</SUB>", "sample": [["Source:", "synthesized by the authors"], ["Initial purification:", "estimated by the compiler"], ["Initial purity:", "98 mass %"], ["Final purification:", "Karl Fischer titration"], ["Final purity:", "0.0021 water mass %(de-gassed by evacuation)"]], "idout": "ABXNPV", "name": "1-ethyl-3-methylimidazolium bis[(trifluoromethyl)sulfonyl]imide"}], "footer": "", "solvent": null, "expmeth": "Heating/Cooling curves", "title": "Phase transition properties: Normal melting temperature", "ref": {"title": "Determination of phase transition points of ionic liquids by combination of thermal analysis and conductivity measurements at very low heating and cooling rates", "full": "Wachter, P.; Schreiner, C.; Schweiger, H.-G.; Gores, H. J. (2010) J. Chem. Thermodyn. 42(7), 900-903."}}