{"solvent": null, "expmeth": "from temp. dependence of electrical conductivity", "footer": "", "ref": {"full": "Wachter, P.; Schreiner, C.; Schweiger, H.-G.; Gores, H. J. (2010) J. Chem. Thermodyn. 42(7), 900-903.", "title": "Determination of phase transition points of ionic liquids by combination of thermal analysis and conductivity measurements at very low heating and cooling rates"}, "title": "Phase transition properties: Normal melting temperature", "components": [{"name": "1-ethyl-3-methylimidazolium dicyanamide", "sample": [["Source:", "synthesized by the authors"], ["Initial purification:", "estimated by the compiler"], ["Initial purity:", "97 mass %"], ["Final purification:", "Karl Fischer titration"], ["Final purity:", "0.002 water mass %(de-gassed by evacuation)"]], "idout": "AAiErJ", "formula": "C<SUB>8</SUB>H<SUB>11</SUB>N<SUB>5</SUB>", "mw": "177.21"}], "constr": ["Pressure of 1 atm"], "dhead": [["Normal melting temperature, K"]], "phases": ["Crystal", "Liquid"], "data": [[["268.3", "1"]]]}