{"dhead": [["Normal melting temperature, K"]], "phases": ["Crystal", "Liquid"], "data": [[["378.15", "0.5"]]], "constr": ["Pressure of 1 atm"], "components": [{"mw": "231.28", "sample": [["Source:", "synthesized by the authors"], ["Purification:", "HPLC"], ["Purity:", "99 mass %(crystallization from solution;dried by vacuum heating)"]], "idout": "AAsYoO", "name": "benzothiazolium methanesulfonate", "formula": "C<SUB>8</SUB>H<SUB>9</SUB>NO<SUB>3</SUB>S<SUB>2</SUB>"}], "solvent": null, "expmeth": "Visual observation", "footer": "", "title": "Phase transition properties: Normal melting temperature", "ref": {"full": "Wang, L.; Wang, X.; Zuo, T.; Sun, Q.; Liu, P.; Yao, S.; Song, H. (2014) J. Chem. Thermodyn. 72, 48-53.", "title": "Determination and correlation of the solubility of four Bronsted-acidic ionic liquids based on benzothiazolium cations in six alcohols"}}