{"footer": "", "expmeth": "Visual observation", "solvent": null, "ref": {"title": "Determination and correlation of the solubility of four Bronsted-acidic ionic liquids based on benzothiazolium cations in six alcohols", "full": "Wang, L.; Wang, X.; Zuo, T.; Sun, Q.; Liu, P.; Yao, S.; Song, H. (2014) J. Chem. Thermodyn. 72, 48-53."}, "title": "Phase transition properties: Normal melting temperature", "constr": ["Pressure of 1 atm"], "components": [{"sample": [["Source:", "synthesized by the authors"], ["Purification:", "HPLC"], ["Purity:", "99 mass %(crystallization from solution;dried by vacuum heating)"]], "idout": "AAqtKB", "name": "benzothiazolium tetrafluoroborate", "formula": "C<SUB>7</SUB>H<SUB>6</SUB>BF<SUB>4</SUB>NS", "mw": "223.00"}], "phases": ["Crystal", "Liquid"], "dhead": [["Normal melting temperature, K"]], "data": [[["398.15", "0.5"]]]}