{"title": "Phase transition properties: Normal melting temperature", "ref": {"title": "Fusion properties of some ionic quaternary ammonium compounds", "full": "Coker, T. G.; Ambrose, J.; Janz, G. J. (1970) J. Am. Chem. Soc. 92, 5293-5297."}, "expmeth": "", "solvent": null, "footer": "", "data": [[["395.15", "0.5"]]], "dhead": [["Normal melting temperature, K"]], "phases": ["Crystal 1", "Liquid"], "constr": ["Pressure of 1 atm"], "components": [{"name": "butyltris(3-methylbutyl)ammonium bromide", "sample": [["Source:", "synthesized by others"], ["Purity analysis:", "purification method described elsewhere"]], "idout": "ABSEMN", "formula": "C<SUB>19</SUB>H<SUB>42</SUB>BrN", "mw": "364.46"}]}