{"footer": "", "expmeth": "Visual observation", "solvent": null, "ref": {"title": "Determination and correlation of the solubility of four Bronsted-acidic ionic liquids based on benzothiazolium cations in six alcohols", "full": "Wang, L.; Wang, X.; Zuo, T.; Sun, Q.; Liu, P.; Yao, S.; Song, H. (2014) J. Chem. Thermodyn. 72, 48-53."}, "title": "Phase transition properties: Normal melting temperature", "constr": ["Pressure of 1 atm"], "components": [{"mw": "285.26", "name": "benzothiazolium trifluoromethanesulfonate", "sample": [["Source:", "synthesized by the authors"], ["Purification:", "HPLC"], ["Purity:", "99 mass %(crystallization from solution;dried by vacuum heating)"]], "idout": "ABCsuO", "formula": "C<SUB>8</SUB>H<SUB>6</SUB>F<SUB>3</SUB>NO<SUB>3</SUB>S<SUB>2</SUB>"}], "phases": ["Crystal", "Liquid"], "dhead": [["Normal melting temperature, K"]], "data": [[["401.15", "0.5"]]]}