{"constr": ["Pressure of 1 atm"], "components": [{"sample": [["Source:", "synthesized by the authors"], ["Purification:", "Karl Fischer titration"], ["Purity:", "0.1 water mass %(dried by vacuum heating)"]], "idout": "ABPBlL", "name": "1-butyl-3-methylimidazolium octyl sulfate", "formula": "C<SUB>16</SUB>H<SUB>32</SUB>N<SUB>2</SUB>O<SUB>4</SUB>S", "mw": "348.50"}], "dhead": [["Normal melting temperature, K"]], "phases": ["Crystal", "Liquid"], "data": [[["307.6", "3.1"]]], "expmeth": "DSC/DTA", "solvent": null, "footer": "", "title": "Phase transition properties: Normal melting temperature", "ref": {"full": "Wasserscheid, P.; van Hal, R.; Bosmann, A. (2002) Green Chem. 4, 400-404.", "title": "1-n-Butyl-3-methylimidazolium ([bmim]) octylsulfate an even greener ionic liquid"}}