{"solvent": null, "expmeth": "Visual observation", "footer": "", "ref": {"title": "Physicochemical Property Estimation of an Ionic Liquid Based on Glutamic Acid-BMIGlu", "full": "Wei, Y.; Zhang, Q.-G.; Liu, Y.; Li, X.; Lian, S.; Kang, Z. (2010) J. Chem. Eng. Data 55(7), 2616-2619."}, "title": "Phase transition properties: Normal melting temperature", "constr": ["Pressure of 1 atm"], "components": [{"mw": "174.67", "sample": [["Source:", "synthesized by the authors"]], "idout": "AAhedZ", "name": "1-butyl-3-methylimidazolium chloride", "formula": "C<SUB>8</SUB>H<SUB>15</SUB>ClN<SUB>2</SUB>"}], "dhead": [["Normal melting temperature, K"]], "phases": ["Crystal", "Liquid"], "data": [[["340.1", "2"]]]}