{"phases": ["Crystal", "Liquid"], "dhead": [["Normal melting temperature, K"]], "data": [[["399.4", "2"]]], "constr": ["Pressure of 1 atm"], "components": [{"idout": "AAZZhN", "sample": [["Source:", "synthesized by the authors"], ["Purification:", "chemical analysis"], ["Purity:", "99 mass %(dried by oven heating)"]], "name": "1,3-dimethylimidazolium chloride", "formula": "C<SUB>5</SUB>H<SUB>9</SUB>ClN<SUB>2</SUB>", "mw": "132.59"}], "footer": "", "expmeth": "Visual observation", "solvent": null, "ref": {"full": "Wilkes, J. S.; Levisky, J. A.; Wilson, R. A.; Hussey, C. L. (1982) Inorg. Chem. 21, 1263-1264.", "title": "Dialkylimidazolium Chloroaluminate Melts: A New Class of Room-Temperature Ionic Liquids for Electrochemistry, Spectroscopy, and Synthesis"}, "title": "Phase transition properties: Normal melting temperature"}