{"footer": "", "expmeth": "Visual observation", "solvent": null, "title": "Phase transition properties: Normal melting temperature", "ref": {"full": "Wilkes, J. S.; Levisky, J. A.; Wilson, R. A.; Hussey, C. L. (1982) Inorg. Chem. 21, 1263-1264.", "title": "Dialkylimidazolium Chloroaluminate Melts: A New Class of Room-Temperature Ionic Liquids for Electrochemistry, Spectroscopy, and Synthesis"}, "components": [{"mw": "146.62", "idout": "AAcKJZ", "sample": [["Source:", "synthesized by the authors"], ["Purification:", "chemical analysis"], ["Purity:", "99 mass %(dried by oven heating)"]], "name": "1-ethyl-3-methylimidazolium chloride", "formula": "C<SUB>6</SUB>H<SUB>11</SUB>ClN<SUB>2</SUB>"}], "constr": ["Pressure of 1 atm"], "phases": ["Crystal", "Liquid"], "dhead": [["Normal melting temperature, K"]], "data": [[["358.1", "4"]]]}