{"expmeth": "Visual observation", "solvent": null, "footer": "", "ref": {"full": "Wilkes, J. S.; Levisky, J. A.; Wilson, R. A.; Hussey, C. L. (1982) Inorg. Chem. 21, 1263-1264.", "title": "Dialkylimidazolium Chloroaluminate Melts: A New Class of Room-Temperature Ionic Liquids for Electrochemistry, Spectroscopy, and Synthesis"}, "title": "Phase transition properties: Normal melting temperature", "dhead": [["Normal melting temperature, K"]], "phases": ["Crystal", "Liquid"], "data": [[["335.1", "2"]]], "constr": ["Pressure of 1 atm"], "components": [{"mw": "160.65", "name": "1-methyl-3-propylimidazolium chloride", "idout": "AAeufR", "sample": [["Source:", "synthesized by the authors"], ["Purification:", "chemical analysis"], ["Purity:", "99 mass %(dried by oven heating)"]], "formula": "C<SUB>7</SUB>H<SUB>13</SUB>ClN<SUB>2</SUB>"}]}