{"phases": ["Crystal 1", "Liquid"], "dhead": [["Normal melting temperature, K"]], "data": [[["387.15", "0.5"]]], "components": [{"formula": "C<SUB>20</SUB>H<SUB>44</SUB>N<SUB>2</SUB>O<SUB>3</SUB>", "name": "tetrapentylammonium nitrate", "sample": [["Source:", "synthesized by others"], ["Purity analysis:", "crystallization from solution"]], "idout": "ABRRUc", "mw": "360.58"}], "constr": ["Pressure of 1 atm"], "footer": "", "expmeth": "", "solvent": null, "ref": {"full": "Coker, T. G.; Ambrose, J.; Janz, G. J. (1970) J. Am. Chem. Soc. 92, 5293-5297.", "title": "Fusion properties of some ionic quaternary ammonium compounds"}, "title": "Phase transition properties: Normal melting temperature"}