{"footer": "", "solvent": null, "expmeth": "DSC/DTA", "ref": {"title": "Energetic Ionic Liquids from Azido Derivatives of 1,2,4-Triazole", "full": "Xue, H.; Shreeve, J. (2005) Adv. Mater. Res. 17, 2142-2146."}, "title": "Phase transition properties: Normal melting temperature", "phases": ["Crystal", "Liquid"], "dhead": [["Normal melting temperature, K"]], "data": [[["336.1", "1"]]], "components": [{"mw": "252.62", "formula": "C<SUB>5</SUB>H<SUB>9</SUB>ClN<SUB>6</SUB>O<SUB>4</SUB>", "name": "4-(2-azidoethyl)-1-methyl-4H-1,2,4-triazol-1-ium perchlorate", "idout": "AAweEX", "sample": [["Source:", "synthesized by the authors"], ["Purification:", "estimated by the compiler"], ["Purity:", "99 % (basis not specified)"]]}], "constr": ["Pressure of 1 atm"]}