{"data": [[["216.1", "1"]]], "phases": ["Crystal", "Liquid"], "dhead": [["Normal melting temperature, K"]], "components": [{"formula": "C<SUB>5</SUB>H<SUB>9</SUB>N<SUB>7</SUB>O<SUB>3</SUB>", "name": "1-(2-azidoethyl)-4-methyl-1,2,4-triazolium nitrate", "sample": [["Source:", "synthesized by the authors"], ["Purification:", "estimated by the compiler"], ["Purity:", "99 % (basis not specified)"]], "idout": "AApThI", "mw": "215.17"}], "constr": ["Pressure of 1 atm"], "title": "Phase transition properties: Normal melting temperature", "ref": {"title": "Energetic Ionic Liquids from Azido Derivatives of 1,2,4-Triazole", "full": "Xue, H.; Shreeve, J. (2005) Adv. Mater. Res. 17, 2142-2146."}, "footer": "", "expmeth": "DSC/DTA", "solvent": null}