{"footer": "", "solvent": null, "expmeth": "DSC/DTA", "title": "Phase transition properties: Normal melting temperature", "ref": {"title": "Energetic Ionic Liquids from Azido Derivatives of 1,2,4-Triazole", "full": "Xue, H.; Shreeve, J. (2005) Adv. Mater. Res. 17, 2142-2146."}, "phases": ["Crystal", "Liquid"], "dhead": [["Normal melting temperature, K"]], "data": [[["372.1", "1"]]], "constr": ["Pressure of 1 atm"], "components": [{"mw": "201.15", "formula": "C<SUB>4</SUB>H<SUB>7</SUB>N<SUB>7</SUB>O<SUB>3</SUB>", "sample": [["Source:", "synthesized by the authors"], ["Purification:", "estimated by the compiler"], ["Purity:", "99 % (basis not specified)"]], "idout": "AAmjCj", "name": "1-(2-azidoethyl)-1H-1,2,4-triazol-1-ium nitrate"}]}