{"constr": ["Pressure of 1 atm"], "components": [{"formula": "C<SUB>24</SUB>H<SUB>52</SUB>N<SUB>2</SUB>O<SUB>3</SUB>", "sample": [["Source:", "synthesized by others"], ["Purity analysis:", "crystallization from solution"]], "idout": "ABcGCy", "name": "tetrahexylammonium nitrate", "mw": "416.69"}], "dhead": [["Normal melting temperature, K"]], "phases": ["Crystal 1", "Liquid"], "data": [[["345.15", "0.5"]]], "expmeth": "", "solvent": null, "footer": "", "title": "Phase transition properties: Normal melting temperature", "ref": {"title": "Fusion properties of some ionic quaternary ammonium compounds", "full": "Coker, T. G.; Ambrose, J.; Janz, G. J. (1970) J. Am. Chem. Soc. 92, 5293-5297."}}