{"data": [[["381.1", "1"]]], "phases": ["Crystal", "Liquid"], "dhead": [["Normal melting temperature, K"]], "constr": ["Pressure of 1 atm"], "components": [{"mw": "198.56", "formula": "C<SUB>3</SUB>H<SUB>7</SUB>ClN<SUB>4</SUB>O<SUB>4</SUB>", "sample": [["Source:", "synthesized by the authors"], ["Purification:", "estimated by the compiler"], ["Purity:", "97 % (basis not specified)(dried by vacuum heating)"]], "idout": "AAmJnh", "name": "1-amino-4-methyl-4H-1,2,4-triazol-1-ium perchlorate"}], "title": "Phase transition properties: Normal melting temperature", "ref": {"title": "Energetic Salts of N-Aminoazoles", "full": "Xue, H.; Arritt, S. W.; Twamley, B.; Shreeve, J. M. (2004) Inorg. Chem. 43, 7972-7977."}, "footer": "", "solvent": null, "expmeth": "DSC/DTA"}