{"dhead": [["Normal melting temperature, K"]], "phases": ["Crystal", "Liquid"], "data": [[["342.1", "1"]]], "components": [{"formula": "C<SUB>2</SUB>H<SUB>5</SUB>N<SUB>5</SUB>O<SUB>3</SUB>", "idout": "AAcOVP", "sample": [["Source:", "synthesized by the authors"], ["Purification:", "estimated by the compiler"], ["Purity:", "97 % (basis not specified)"]], "name": "4-amino-1,2,4-triazolium nitrate", "mw": "147.09"}], "constr": ["Pressure of 1 atm"], "solvent": null, "expmeth": "DSC/DTA", "footer": "", "ref": {"title": "Energetic Salts of N-Aminoazoles", "full": "Xue, H.; Arritt, S. W.; Twamley, B.; Shreeve, J. M. (2004) Inorg. Chem. 43, 7972-7977."}, "title": "Phase transition properties: Normal melting temperature"}