{"constr": ["Pressure of 1 atm"], "components": [{"mw": "184.54", "name": "4-amino-1,2,4-triazolium perchlorate", "sample": [["Source:", "synthesized by the authors"], ["Purification:", "estimated by the compiler"], ["Purity:", "97 % (basis not specified)"]], "idout": "AAjZll", "formula": "C<SUB>2</SUB>H<SUB>5</SUB>ClN<SUB>4</SUB>O<SUB>4</SUB>"}], "phases": ["Crystal", "Liquid"], "dhead": [["Normal melting temperature, K"]], "data": [[["356.1", "1"]]], "footer": "", "solvent": null, "expmeth": "DSC/DTA", "title": "Phase transition properties: Normal melting temperature", "ref": {"full": "Xue, H.; Arritt, S. W.; Twamley, B.; Shreeve, J. M. (2004) Inorg. Chem. 43, 7972-7977.", "title": "Energetic Salts of N-Aminoazoles"}}