{"components": [{"formula": "C<SUB>3</SUB>H<SUB>7</SUB>ClN<SUB>4</SUB>O<SUB>4</SUB>", "name": "4-amino-1-methyl-4H-1,2,4-triazol-1-ium perchlorate", "idout": "AAmJmJ", "sample": [["Source:", "synthesized by the authors"], ["Purification:", "estimated by the compiler"], ["Purity:", "97 % (basis not specified)"]], "mw": "198.56"}], "constr": ["Pressure of 1 atm"], "dhead": [["Normal melting temperature, K"]], "phases": ["Crystal", "Liquid"], "data": [[["359.1", "1"]]], "expmeth": "DSC/DTA", "solvent": null, "footer": "", "title": "Phase transition properties: Normal melting temperature", "ref": {"title": "Energetic Salts of N-Aminoazoles", "full": "Xue, H.; Arritt, S. W.; Twamley, B.; Shreeve, J. M. (2004) Inorg. Chem. 43, 7972-7977."}}