{"solvent": null, "expmeth": "DSC/DTA", "footer": "", "title": "Phase transition properties: Normal melting temperature", "ref": {"full": "Xue, H.; Arritt, S. W.; Twamley, B.; Shreeve, J. M. (2004) Inorg. Chem. 43, 7972-7977.", "title": "Energetic Salts of N-Aminoazoles"}, "dhead": [["Normal melting temperature, K"]], "phases": ["Crystal", "Liquid"], "data": [[["324.1", "1"]]], "components": [{"mw": "213.58", "formula": "C<SUB>3</SUB>H<SUB>8</SUB>ClN<SUB>5</SUB>O<SUB>4</SUB>", "idout": "AApDdu", "sample": [["Source:", "synthesized by the authors"], ["Purification:", "estimated by the compiler"], ["Purity:", "97 % (basis not specified)(dried by vacuum heating)"]], "name": "4-amino-1,5-dimethyl-1H-tetrazol-4-ium perchlorate"}], "constr": ["Pressure of 1 atm"]}