{"solvent": null, "expmeth": "DSC/DTA", "footer": "", "ref": {"full": "Xue, H.; Gao, Y.; Twamley, B.; Shreeve, J. M. (2005) Chem. Mater. 17, 191-198.", "title": "New Energetic Salts Based on Nitrogen-Containing Heterocycles"}, "title": "Phase transition properties: Normal melting temperature", "constr": ["Pressure of 1 atm"], "components": [{"name": "3-azido-1,4-dimethyl-4H-1,2,4-triazol-1-ium nitrate", "idout": "AAmjTX", "sample": [["Source:", "synthesized by the authors"], ["Purification:", "estimated by the compiler"], ["Purity:", "98 mol %"]], "formula": "C<SUB>4</SUB>H<SUB>7</SUB>N<SUB>7</SUB>O<SUB>3</SUB>", "mw": "201.15"}], "dhead": [["Normal melting temperature, K"]], "phases": ["Crystal", "Liquid"], "data": [[["371.1", "1"]]]}