{"dhead": [["Normal melting temperature, K"]], "phases": ["Crystal", "Liquid"], "data": [[["394.2", "0.5"]]], "constr": ["Pressure of 1 atm"], "components": [{"mw": "599.22", "name": "mercury(II) dodecanoate", "sample": [["Source:", "synthesized by the authors"], ["Purification:", "spectroscopy"], ["Purity analysis:", "chemical reagent treatment"]], "idout": "ACLMCy", "formula": "C<SUB>24</SUB>H<SUB>46</SUB>HgO<SUB>4</SUB>"}], "expmeth": "", "solvent": null, "footer": "", "ref": {"title": "A differential thermal analysis study of phase transitions in some mercury(II) carboxylates", "full": "Adeosun, S. O. (1978) J. Therm. Anal. 14, 235-43."}, "title": "Phase transition properties: Normal melting temperature"}