{"phases": ["Crystal 1", "Liquid"], "dhead": [["Normal melting temperature, K"]], "data": [[["367.15", "0.5"]]], "constr": ["Pressure of 1 atm"], "components": [{"mw": "441.49", "name": "N,N,N-trihexyl-1-hexanaminium tetrafluoroborate", "sample": [["Source:", "synthesized by others"], ["Purity analysis:", "purification method described elsewhere"]], "idout": "ABguBk", "formula": "C<SUB>24</SUB>H<SUB>52</SUB>BF<SUB>4</SUB>N"}], "footer": "", "solvent": null, "expmeth": "", "ref": {"full": "Coker, T. G.; Ambrose, J.; Janz, G. J. (1970) J. Am. Chem. Soc. 92, 5293-5297.", "title": "Fusion properties of some ionic quaternary ammonium compounds"}, "title": "Phase transition properties: Normal melting temperature"}