{"solvent": null, "expmeth": "DSC/DTA", "footer": "", "title": "Phase transition properties: Normal melting temperature", "ref": {"full": "Xue, H.; Gao, Y.; Twamley, B.; Shreeve, J. M. (2005) Chem. Mater. 17, 191-198.", "title": "New Energetic Salts Based on Nitrogen-Containing Heterocycles"}, "constr": ["Pressure of 1 atm"], "components": [{"mw": "241.04", "formula": "C<SUB>3</SUB>H<SUB>8</SUB>IN<SUB>5</SUB>", "name": "4-amino-1,5-dimethyl-1H-tetrazol-4-ium iodide", "idout": "AAuSuZ", "sample": [["Source:", "synthesized by the authors"], ["Purification:", "estimated by the compiler"], ["Purity:", "98 mol %"]]}], "dhead": [["Normal melting temperature, K"]], "phases": ["Crystal", "Liquid"], "data": [[["394.1", "1"]]]}