{"footer": "", "expmeth": "DSC/DTA", "solvent": null, "title": "Phase transition properties: Normal melting temperature", "ref": {"title": "New Energetic Salts Based on Nitrogen-Containing Heterocycles", "full": "Xue, H.; Gao, Y.; Twamley, B.; Shreeve, J. M. (2005) Chem. Mater. 17, 191-198."}, "constr": ["Pressure of 1 atm"], "components": [{"mw": "175.15", "name": "1,3,5-trimethyl-1H-tetrazolium nitrate", "sample": [["Source:", "synthesized by the authors"], ["Purification:", "estimated by the compiler"], ["Purity:", "98 mol %"]], "idout": "AAhjtO", "formula": "C<SUB>4</SUB>H<SUB>9</SUB>N<SUB>5</SUB>O<SUB>3</SUB>"}], "phases": ["Crystal", "Liquid"], "dhead": [["Normal melting temperature, K"]], "data": [[["367.1", "1"]]]}