{"expmeth": "DSC/DTA", "solvent": null, "footer": "", "ref": {"full": "Xue, H.; Gao, Y.; Twamley, B.; Shreeve, J. M. (2005) Chem. Mater. 17, 191-198.", "title": "New Energetic Salts Based on Nitrogen-Containing Heterocycles"}, "title": "Phase transition properties: Normal melting temperature", "dhead": [["Normal melting temperature, K"]], "phases": ["Crystal", "Liquid"], "data": [[["341.1", "1"]]], "constr": ["Pressure of 1 atm"], "components": [{"mw": "238.59", "name": "3-azido-1,4-dimethyl-4H-1,2,4-triazol-1-ium perchlorate", "sample": [["Source:", "synthesized by the authors"], ["Purification:", "estimated by the compiler"], ["Purity:", "98 mol %(dried by vacuum heating)"]], "idout": "AAttLQ", "formula": "C<SUB>4</SUB>H<SUB>7</SUB>ClN<SUB>6</SUB>O<SUB>4</SUB>"}]}