{"footer": "", "expmeth": "DSC/DTA", "solvent": null, "title": "Phase transition properties: Normal melting temperature", "ref": {"title": "New Energetic Salts Based on Nitrogen-Containing Heterocycles", "full": "Xue, H.; Gao, Y.; Twamley, B.; Shreeve, J. M. (2005) Chem. Mater. 17, 191-198."}, "phases": ["Crystal", "Liquid"], "dhead": [["Normal melting temperature, K"]], "data": [[["274.1", "1"]]], "constr": ["Pressure of 1 atm"], "components": [{"mw": "160.13", "idout": "AAepui", "sample": [["Source:", "synthesized by the authors"], ["Purification:", "estimated by the compiler"], ["Purity:", "98 mol %"]], "name": "1,4-dimethyl-4H-1,2,4-triazolium nitrate", "formula": "C<SUB>4</SUB>H<SUB>8</SUB>N<SUB>4</SUB>O<SUB>3</SUB>"}]}