{"data": [[["383.1", "1"]]], "phases": ["Crystal", "Liquid"], "dhead": [["Normal melting temperature, K"]], "constr": ["Pressure of 1 atm"], "components": [{"sample": [["Source:", "synthesized by the authors"], ["Purification:", "estimated by the compiler"], ["Purity:", "98 mol %"]], "idout": "ABoEcC", "name": "1,4-dimethyl-4H-1,2,4-triazolium triiodide", "formula": "C<SUB>4</SUB>H<SUB>8</SUB>I<SUB>3</SUB>N<SUB>3</SUB>", "mw": "478.84"}], "ref": {"full": "Xue, H.; Gao, Y.; Twamley, B.; Shreeve, J. M. (2005) Chem. Mater. 17, 191-198.", "title": "New Energetic Salts Based on Nitrogen-Containing Heterocycles"}, "title": "Phase transition properties: Normal melting temperature", "footer": "", "expmeth": "DSC/DTA", "solvent": null}