{"footer": "", "expmeth": "", "solvent": null, "title": "Phase transition properties: Normal melting temperature", "ref": {"full": "Coker, T. G.; Ambrose, J.; Janz, G. J. (1970) J. Am. Chem. Soc. 92, 5293-5297.", "title": "Fusion properties of some ionic quaternary ammonium compounds"}, "components": [{"mw": "277.92", "idout": "ABBXth", "sample": [["Source:", "commercial source"]], "name": "tetrabutylammonium chloride", "formula": "C<SUB>16</SUB>H<SUB>36</SUB>ClN"}], "constr": ["Pressure of 1 atm"], "phases": ["Crystal", "Liquid"], "dhead": [["Normal melting temperature, K"]], "data": [[["314.1", "1"]]]}