{"phases": ["Crystal", "Liquid"], "dhead": [["Normal melting temperature, K"]], "data": [[["370.1", "1"]]], "constr": ["Pressure of 1 atm"], "components": [{"mw": "214.10", "idout": "AApJkk", "sample": [["Source:", "synthesized by the authors"], ["Purification:", "estimated by the compiler"], ["Purity:", "98 mol %"]], "name": "3,5-diazido-1,2,4-triazolium nitrate", "formula": "C<SUB>2</SUB>H<SUB>2</SUB>N<SUB>10</SUB>O<SUB>3</SUB>"}], "footer": "", "expmeth": "DSC/DTA", "solvent": null, "ref": {"full": "Xue, H.; Gao, Y.; Twamley, B.; Shreeve, J. M. (2005) Chem. Mater. 17, 191-198.", "title": "New Energetic Salts Based on Nitrogen-Containing Heterocycles"}, "title": "Phase transition properties: Normal melting temperature"}