{"solvent": null, "expmeth": "DSC/DTA", "footer": "", "title": "Phase transition properties: Normal melting temperature", "ref": {"full": "Xue, L.; Gurung, E.; Tamas, G.; Koh, Y. P.; Shadeck, M.; Simon, S. L.; Maroncelli, M.; Quitevis, E. L. (2016) J. Chem. Eng. Data 61(3), 1078-1091.", "title": "Effect of Alkyl Chain Branching on Physicochemical Properties of Imidazolium-Based Ionic Liquids"}, "constr": ["Pressure of 1 atm"], "components": [{"mw": "447.41", "formula": "C<SUB>12</SUB>H<SUB>19</SUB>F<SUB>6</SUB>N<SUB>3</SUB>O<SUB>4</SUB>S<SUB>2</SUB>", "name": "1-hexyl-3-methylimidazolium bis[(trifluoromethyl)sulfonyl]imide", "sample": [["Source:", "synthesized by the authors"], ["Initial purity:", "99.8 % (basis not specified)"], ["Final purity:", "0.0080 water mass %"]], "idout": "ABiCZb"}], "dhead": [["Normal melting temperature, K"]], "phases": ["Crystal", "Liquid"], "data": [[["261.9", "3.4"]]]}