{"constr": ["Pressure of 1 atm"], "components": [{"mw": "447.41", "formula": "C<SUB>12</SUB>H<SUB>19</SUB>F<SUB>6</SUB>N<SUB>3</SUB>O<SUB>4</SUB>S<SUB>2</SUB>", "name": "1-(4-methylpentyl)-3-methylimidazolium bis[(trifluoromethyl)sulfonyl]imide", "sample": [["Source:", "synthesized by the authors"], ["Initial purity:", "99.9 % (basis not specified)"], ["Final purity:", "0.004 water mass %"]], "idout": "ABiCtF"}], "phases": ["Crystal", "Liquid"], "dhead": [["Normal melting temperature, K"]], "data": [[["276.3", "3.4"]]], "footer": "", "expmeth": "DSC/DTA", "solvent": null, "title": "Phase transition properties: Normal melting temperature", "ref": {"title": "Effect of Alkyl Chain Branching on Physicochemical Properties of Imidazolium-Based Ionic Liquids", "full": "Xue, L.; Gurung, E.; Tamas, G.; Koh, Y. P.; Shadeck, M.; Simon, S. L.; Maroncelli, M.; Quitevis, E. L. (2016) J. Chem. Eng. Data 61(3), 1078-1091."}}