{"dhead": [["Normal melting temperature, K"]], "phases": ["Crystal", "Liquid"], "data": [[["284.3", "3.4"]]], "components": [{"formula": "C<SUB>13</SUB>H<SUB>21</SUB>F<SUB>6</SUB>N<SUB>3</SUB>O<SUB>4</SUB>S<SUB>2</SUB>", "sample": [["Source:", "synthesized by the authors"], ["Initial purity:", "99.8 % (basis not specified)"], ["Final purity:", "0.0081 water mass %"]], "idout": "ABkmKJ", "name": "1-(5-methylhexyl)-3-methylimidazolium bis[(trifluoromethyl)sulfonyl]imide", "mw": "461.44"}], "constr": ["Pressure of 1 atm"], "expmeth": "DSC/DTA", "solvent": null, "footer": "", "title": "Phase transition properties: Normal melting temperature", "ref": {"title": "Effect of Alkyl Chain Branching on Physicochemical Properties of Imidazolium-Based Ionic Liquids", "full": "Xue, L.; Gurung, E.; Tamas, G.; Koh, Y. P.; Shadeck, M.; Simon, S. L.; Maroncelli, M.; Quitevis, E. L. (2016) J. Chem. Eng. Data 61(3), 1078-1091."}}