{"solvent": null, "expmeth": "Visual observation", "footer": "", "ref": {"title": "Solubility of 1,1'-(Butane-1,4-diyl)-bis(3-methyl-1H-imidazolium-1-yl) Dihexafluorophosphate in Water, Acetophenone, Cyclohexanone, Acetylacetone, and 2-Butanone", "full": "Yang, X.-Z.; Wang, J. (2010) J. Chem. Eng. Data 55(7), 2594-2595."}, "title": "Phase transition properties: Normal melting temperature", "dhead": [["Normal melting temperature, K"]], "phases": ["Crystal", "Liquid"], "data": [[["391.6", "2.9"]]], "components": [{"formula": "C<SUB>12</SUB>H<SUB>20</SUB>F<SUB>12</SUB>N<SUB>4</SUB>P<SUB>2</SUB>", "sample": [["Source:", "synthesized by others"], ["Purification:", "HPLC"], ["Purity:", "99 mass %"]], "idout": "ABuGJu", "name": "3,3'-(butane-1,4-diyl)bis(1-methyl-1H-imidazolium) hexafluorophosphate(V)", "mw": "510.25"}], "constr": ["Pressure of 1 atm"]}