{"ref": {"title": "Study of the Volumetric Properties of the Aqueous Ionic Liquid 1-Methyl-3-pentylimidazolium Tetrafluoroborate", "full": "Yang, J. -Z.; Tong, J.; Li, J.-B. (2007) J. Solution Chem. 36, 573-582."}, "title": "Phase transition properties: Normal melting temperature", "footer": "", "expmeth": "Visual observation", "solvent": null, "data": [[["349.1", "1.8"]]], "phases": ["Crystal", "Liquid"], "dhead": [["Normal melting temperature, K"]], "components": [{"mw": "188.70", "formula": "C<SUB>9</SUB>H<SUB>17</SUB>ClN<SUB>2</SUB>", "name": "1-methyl-3-pentylimidazolium chloride", "idout": "AAkObZ", "sample": [["Source:", "synthesized by the authors"], ["Purity analysis:", "dried by vacuum heating"]]}], "constr": ["Pressure of 1 atm"]}