{"phases": ["Crystal", "Liquid"], "dhead": [["Normal melting temperature, K"]], "data": [[["259.1", "1"]]], "components": [{"formula": "C<SUB>8</SUB>H<SUB>16</SUB>F<SUB>3</SUB>NO<SUB>3</SUB>S", "name": "N,N-diethylprop-2-en-1-aminium trifluoromethanesulfonate", "sample": [["Source:", "synthesized by the authors"], ["Purification:", "Karl Fischer titration"], ["Purity:", "0.01 water mass %(dried by vacuum heating)"]], "idout": "AAygbw", "mw": "263.28"}], "constr": ["Pressure of 1 atm"], "footer": "", "expmeth": "DSC/DTA", "solvent": null, "ref": {"full": "Yasuda, T.; Kinoshita, H.; Miran, M. S.; Tsuzuki, S.; Watanabe, M. (2013) J. Chem. Eng. Data 58(10), 2724-2732.", "title": "Comparative Study on Physicochemical Properties of Protic Ionic Liquids Based on Allylammonium and Propylammonium Cations"}, "title": "Phase transition properties: Normal melting temperature"}