{"title": "Phase transition properties: Normal melting temperature", "ref": {"title": "Comparative Study on Physicochemical Properties of Protic Ionic Liquids Based on Allylammonium and Propylammonium Cations", "full": "Yasuda, T.; Kinoshita, H.; Miran, M. S.; Tsuzuki, S.; Watanabe, M. (2013) J. Chem. Eng. Data 58(10), 2724-2732."}, "footer": "", "solvent": null, "expmeth": "DSC/DTA", "data": [[["267.1", "1"]]], "phases": ["Crystal", "Liquid"], "dhead": [["Normal melting temperature, K"]], "components": [{"formula": "C<SUB>6</SUB>H<SUB>14</SUB>F<SUB>3</SUB>NO<SUB>3</SUB>S", "idout": "AAtgPj", "sample": [["Source:", "synthesized by the authors"], ["Purification:", "Karl Fischer titration"], ["Purity:", "0.01 water mass %(dried by vacuum heating)"]], "name": "diethylmethylammonium trifluoromethanesulfonate", "mw": "237.24"}], "constr": ["Pressure of 1 atm"]}