{"title": "Phase transition properties: Normal melting temperature", "ref": {"title": "Comparative Study on Physicochemical Properties of Protic Ionic Liquids Based on Allylammonium and Propylammonium Cations", "full": "Yasuda, T.; Kinoshita, H.; Miran, M. S.; Tsuzuki, S.; Watanabe, M. (2013) J. Chem. Eng. Data 58(10), 2724-2732."}, "footer": "", "expmeth": "DSC/DTA", "solvent": null, "data": [[["289.1", "1"]]], "phases": ["Crystal", "Liquid"], "dhead": [["Normal melting temperature, K"]], "components": [{"mw": "235.22", "formula": "C<SUB>6</SUB>H<SUB>12</SUB>F<SUB>3</SUB>NO<SUB>3</SUB>S", "idout": "AAtMDb", "sample": [["Source:", "synthesized by the authors"], ["Purification:", "Karl Fischer titration"], ["Purity:", "0.01 water mass %(dried by vacuum heating)"]], "name": "N,N-dimethylprop-2-en-1-aminium trifluoromethanesulfonate"}], "constr": ["Pressure of 1 atm"]}