{"components": [{"formula": "C<SUB>8</SUB>H<SUB>18</SUB>F<SUB>3</SUB>NO<SUB>3</SUB>S", "name": "N,N-diethylpropan-1-aminium trifluoromethanesulfonate", "idout": "AAzANQ", "sample": [["Source:", "synthesized by the authors"], ["Purification:", "Karl Fischer titration"], ["Purity:", "0.01 water mass %(dried by vacuum heating)"]], "mw": "265.29"}], "constr": ["Pressure of 1 atm"], "phases": ["Crystal", "Liquid"], "dhead": [["Normal melting temperature, K"]], "data": [[["259.1", "1"]]], "footer": "", "expmeth": "DSC/DTA", "solvent": null, "title": "Phase transition properties: Normal melting temperature", "ref": {"full": "Yasuda, T.; Kinoshita, H.; Miran, M. S.; Tsuzuki, S.; Watanabe, M. (2013) J. Chem. Eng. Data 58(10), 2724-2732.", "title": "Comparative Study on Physicochemical Properties of Protic Ionic Liquids Based on Allylammonium and Propylammonium Cations"}}