{"solvent": null, "expmeth": "DSC/DTA", "footer": "", "ref": {"full": "Yasuda, T.; Kinoshita, H.; Miran, M. S.; Tsuzuki, S.; Watanabe, M. (2013) J. Chem. Eng. Data 58(10), 2724-2732.", "title": "Comparative Study on Physicochemical Properties of Protic Ionic Liquids Based on Allylammonium and Propylammonium Cations"}, "title": "Phase transition properties: Normal melting temperature", "constr": ["Pressure of 1 atm"], "components": [{"mw": "261.26", "name": "N-allyl-N-methylprop-2-en-1-aminium trifluoromethanesulfonate", "sample": [["Source:", "synthesized by the authors"], ["Purification:", "Karl Fischer titration"], ["Purity:", "0.01 water mass %(dried by vacuum heating)"]], "idout": "AAyMJm", "formula": "C<SUB>8</SUB>H<SUB>14</SUB>F<SUB>3</SUB>NO<SUB>3</SUB>S"}], "dhead": [["Normal melting temperature, K"]], "phases": ["Crystal", "Liquid"], "data": [[["254.2", "1"]]]}