{"expmeth": "", "solvent": null, "footer": "", "title": "Phase transition properties: Normal melting temperature", "ref": {"full": "Coker, T. G.; Ambrose, J.; Janz, G. J. (1970) J. Am. Chem. Soc. 92, 5293-5297.", "title": "Fusion properties of some ionic quaternary ammonium compounds"}, "constr": ["Pressure of 1 atm"], "components": [{"mw": "334.03", "formula": "C<SUB>20</SUB>H<SUB>44</SUB>ClN", "idout": "ABMMcR", "sample": [["Source:", "commercial source"]], "name": "tetrapentylammonium chloride"}], "dhead": [["Normal melting temperature, K"]], "phases": ["Crystal 1", "Liquid"], "data": [[["295.15", "0.5"]]]}