{"phases": ["Crystal", "Liquid"], "dhead": [["Normal melting temperature, K"]], "data": [[["293.1", "1"]]], "constr": ["Pressure of 1 atm"], "components": [{"formula": "C<SUB>6</SUB>H<SUB>14</SUB>F<SUB>3</SUB>NO<SUB>3</SUB>S", "sample": [["Source:", "synthesized by the authors"], ["Purification:", "Karl Fischer titration"], ["Purity:", "0.01 water mass %(dried by vacuum heating)"]], "idout": "AAtgJL", "name": "N,N-dimethylpropan-1-aminium trifluoromethanesulfonate", "mw": "237.24"}], "footer": "", "expmeth": "DSC/DTA", "solvent": null, "ref": {"full": "Yasuda, T.; Kinoshita, H.; Miran, M. S.; Tsuzuki, S.; Watanabe, M. (2013) J. Chem. Eng. Data 58(10), 2724-2732.", "title": "Comparative Study on Physicochemical Properties of Protic Ionic Liquids Based on Allylammonium and Propylammonium Cations"}, "title": "Phase transition properties: Normal melting temperature"}