{"footer": "", "solvent": null, "expmeth": "Visual observation", "ref": {"title": "Transport and Thermodynamic Properties of Ethylammonium Nitrate Water Binary Mixtures: Effect of Temperature and Composition", "full": "Zarrougui, R.; Dhahbi, M.; Lemordant, D. (2015) J. Solution Chem. 44, 686-702."}, "title": "Phase transition properties: Normal melting temperature", "constr": ["Pressure of 1 atm"], "components": [{"formula": "C<SUB>2</SUB>H<SUB>8</SUB>N<SUB>2</SUB>O<SUB>3</SUB>", "idout": "AAUodx", "sample": [["Source:", "synthesized by the authors"], ["Initial purification:", "estimated by the compiler"], ["Initial purity:", "97 mass %"], ["Final purification:", "Karl Fischer titration"], ["Final purity:", "0.005 water mass %"]], "name": "ethylammonium nitrate", "mw": "108.10"}], "phases": ["Crystal", "Liquid"], "dhead": [["Normal melting temperature, K"]], "data": [[["285.15", "0.5"]]]}