{"title": "Phase transition properties: Normal melting temperature", "ref": {"title": "Thermodynamic properties of the N-octylquinolinium bis{(trifluoromethyl)sulfonyl}imide", "full": "Zawadzki, M.; Domanska, U. (2012) J. Chem. Thermodyn. 48, 276-283."}, "footer": "", "solvent": null, "expmeth": "Visual observation", "data": [[["321.3", "1.1"]]], "phases": ["Crystal", "Liquid"], "dhead": [["Normal melting temperature, K"]], "constr": ["Pressure of 1 atm"], "components": [{"mw": "522.52", "formula": "C<SUB>19</SUB>H<SUB>24</SUB>F<SUB>6</SUB>N<SUB>2</SUB>O<SUB>4</SUB>S<SUB>2</SUB>", "idout": "ABwZUB", "sample": [["Source:", "synthesized by the authors"], ["Purification:", "estimated by the compiler;Karl Fischer titration"], ["Purity:", "96 mass %;0.025 water mass %(dried by vacuum heating)"]], "name": "1-octylquinolinium bis[(trifluoromethyl)sulfonyl]imide"}]}