{"footer": "", "expmeth": "DSC/DTA", "solvent": null, "ref": {"full": "Zawadzki, M.; Krolikowska, M.; Antonowicz, J.; Lipinski, P.; Karpinska, M. (2016) J. Chem. Thermodyn. 98, 324-337.", "title": "Physicochemical and thermodynamic properties of the {1-alkyl-1-methylmorpholinium bromide, [C1Cn=3,4,5MOR]Br, or 1-methyl-1-pentylpiperidinium bromide, [C1C5PIP]Br + water} binary systems"}, "title": "Phase transition properties: Normal melting temperature", "phases": ["Crystal 1", "Liquid"], "dhead": [["Normal melting temperature, K"]], "data": [[["446.8", "0.41"]]], "constr": ["Pressure of 1 atm"], "components": [{"idout": "AAwGLO", "sample": [["Source:", "synthesized by the authors"], ["Initial purification:", "NMR (proton)"], ["Initial purity:", "95 mass %"], ["Final purification:", "Karl Fischer titration"], ["Final purity:", "0.3520 water mass %(crystallization from solution;dried by vacuum heating)"]], "name": "1-methyl-1-pentylpiperidinium bromide", "formula": "C<SUB>11</SUB>H<SUB>24</SUB>BrN", "mw": "250.22"}]}