{"footer": "", "solvent": null, "expmeth": "DSC/DTA", "ref": {"full": "Zawadzki, M.; Krolikowska, M.; Antonowicz, J.; Lipinski, P.; Karpinska, M. (2016) J. Chem. Thermodyn. 98, 324-337.", "title": "Physicochemical and thermodynamic properties of the {1-alkyl-1-methylmorpholinium bromide, [C1Cn=3,4,5MOR]Br, or 1-methyl-1-pentylpiperidinium bromide, [C1C5PIP]Br + water} binary systems"}, "title": "Phase transition properties: Normal melting temperature", "constr": ["Pressure of 1 atm"], "components": [{"formula": "C<SUB>10</SUB>H<SUB>22</SUB>BrNO", "idout": "AAwZAE", "sample": [["Source:", "synthesized by the authors"], ["Initial purification:", "NMR (proton)"], ["Initial purity:", "94 mass %"], ["Final purification:", "Karl Fischer titration"], ["Final purity:", "0.6645 water mass %(crystallization from solution;dried by vacuum heating)"]], "name": "4-methyl-4-pentylmorpholinium bromide", "mw": "252.20"}], "phases": ["Crystal 1", "Liquid"], "dhead": [["Normal melting temperature, K"]], "data": [[["467", "0.41"]]]}