{"data": [[["363.65", "0.5"]]], "dhead": [["Normal melting temperature, K"]], "phases": ["Crystal 1", "Liquid"], "components": [{"mw": "309.20", "name": "1-butyronitrile-2,3-dimethylimidazolium hexafluorophosphate", "idout": "ABHXto", "sample": [["Source:", "synthesized by the authors"], ["Purification:", "estimated by the compiler"], ["Purity:", "98 mass %(chemical reagent treatment;dried by vacuum heating)"]], "formula": "C<SUB>9</SUB>H<SUB>14</SUB>F<SUB>6</SUB>N<SUB>3</SUB>P"}], "constr": ["Pressure of 1 atm"], "title": "Phase transition properties: Normal melting temperature", "ref": {"full": "Zhang, Q.; Li, Z.; Zhang, J.; Zhang, S.; Zhu, L.; Yang, J.; Zhang, X.; Deng, Y. (2007) J. Phys. Chem. B 111, 2864-2872.", "title": "Physicochemical Properties of Nitrile-Functionalized Ionic Liquids"}, "solvent": null, "expmeth": "DSC/DTA", "footer": ""}