{"components": [{"mw": "468.16", "formula": "C<SUB>25</SUB>H<SUB>54</SUB>ClNO<SUB>4</SUB>", "name": "1-heptanaminium, N,N,N-trihexyl- perchlorate", "idout": "ABmByu", "sample": [["Source:", "synthesized by others"], ["Purity analysis:", "crystallization from solution"]]}], "constr": ["Pressure of 1 atm"], "data": [[["376.15", "0.5"]]], "dhead": [["Normal melting temperature, K"]], "phases": ["Crystal 1", "Liquid"], "title": "Phase transition properties: Normal melting temperature", "ref": {"full": "Coker, T. G.; Ambrose, J.; Janz, G. J. (1970) J. Am. Chem. Soc. 92, 5293-5297.", "title": "Fusion properties of some ionic quaternary ammonium compounds"}, "solvent": null, "expmeth": "", "footer": ""}