{"components": [{"mw": "185.66", "formula": "C<SUB>8</SUB>H<SUB>12</SUB>ClN<SUB>3</SUB>", "name": "3-(3-cyanopropyl)-1-methylimidazolium chloride", "idout": "AAjkdA", "sample": [["Source:", "synthesized by the authors"], ["Purification:", "estimated by the compiler"], ["Purity:", "98 mass %(chemical reagent treatment;dried by vacuum heating)"]]}], "constr": ["Pressure of 1 atm"], "data": [[["363.45", "0.5"]]], "dhead": [["Normal melting temperature, K"]], "phases": ["Crystal 1", "Liquid"], "ref": {"title": "Physicochemical Properties of Nitrile-Functionalized Ionic Liquids", "full": "Zhang, Q.; Li, Z.; Zhang, J.; Zhang, S.; Zhu, L.; Yang, J.; Zhang, X.; Deng, Y. (2007) J. Phys. Chem. B 111, 2864-2872."}, "title": "Phase transition properties: Normal melting temperature", "solvent": null, "expmeth": "DSC/DTA", "footer": ""}