{"footer": "", "expmeth": "DSC/DTA", "solvent": null, "ref": {"full": "Zhang, Q.; Li, Z.; Zhang, J.; Zhang, S.; Zhu, L.; Yang, J.; Zhang, X.; Deng, Y. (2007) J. Phys. Chem. B 111, 2864-2872.", "title": "Physicochemical Properties of Nitrile-Functionalized Ionic Liquids"}, "title": "Phase transition properties: Normal melting temperature", "components": [{"formula": "C<SUB>8</SUB>H<SUB>12</SUB>F<SUB>6</SUB>N<SUB>3</SUB>P", "name": "1-butyronitrile-3-methylimidazolium hexafluorophosphate", "idout": "ABEnCK", "sample": [["Source:", "synthesized by the authors"], ["Purification:", "estimated by the compiler"], ["Purity:", "98 mass %(chemical reagent treatment;dried by vacuum heating)"]], "mw": "295.17"}], "constr": ["Pressure of 1 atm"], "phases": ["Crystal 1", "Liquid"], "dhead": [["Normal melting temperature, K"]], "data": [[["345.15", "0.5"]]]}