{"footer": "", "expmeth": "DSC/DTA", "solvent": null, "ref": {"full": "Zhang, Q.; Li, Z.; Zhang, J.; Zhang, S.; Zhu, L.; Yang, J.; Zhang, X.; Deng, Y. (2007) J. Phys. Chem. B 111, 2864-2872.", "title": "Physicochemical Properties of Nitrile-Functionalized Ionic Liquids"}, "title": "Phase transition properties: Normal melting temperature", "phases": ["Crystal 1", "Liquid"], "dhead": [["Normal melting temperature, K"]], "data": [[["331.25", "0.5"]]], "constr": ["Pressure of 1 atm"], "components": [{"mw": "407.35", "formula": "C<SUB>9</SUB>H<SUB>15</SUB>F<SUB>6</SUB>N<SUB>3</SUB>O<SUB>4</SUB>S<SUB>2</SUB>", "name": "butyronitriletrimethylammonium bis(trifluoromethanesulfonyl)imide", "idout": "ABaRtP", "sample": [["Source:", "synthesized by the authors"], ["Purification:", "estimated by the compiler"], ["Purity:", "98 mass %(chemical reagent treatment;dried by vacuum heating)"]]}]}