{"footer": "", "expmeth": "DSC/DTA", "solvent": null, "title": "Phase transition properties: Normal melting temperature", "ref": {"full": "Zhang, Q.; Li, Z.; Zhang, J.; Zhang, S.; Zhu, L.; Yang, J.; Zhang, X.; Deng, Y. (2007) J. Phys. Chem. B 111, 2864-2872.", "title": "Physicochemical Properties of Nitrile-Functionalized Ionic Liquids"}, "phases": ["Crystal", "Liquid"], "dhead": [["Normal melting temperature, K"]], "data": [[["374.15", "0.5"]]], "components": [{"formula": "C<SUB>9</SUB>H<SUB>11</SUB>F<SUB>6</SUB>N<SUB>2</SUB>P", "idout": "ABEJua", "sample": [["Source:", "synthesized by the authors"], ["Purification:", "estimated by the compiler"], ["Purity:", "98 mass %(chemical reagent treatment;dried by vacuum heating)"]], "name": "N-butyronitrile pyridinium hexafluorophosphate", "mw": "292.17"}], "constr": ["Pressure of 1 atm"]}