{"ref": {"title": "Physicochemical Properties of Nitrile-Functionalized Ionic Liquids", "full": "Zhang, Q.; Li, Z.; Zhang, J.; Zhang, S.; Zhu, L.; Yang, J.; Zhang, X.; Deng, Y. (2007) J. Phys. Chem. B 111, 2864-2872."}, "title": "Phase transition properties: Normal melting temperature", "expmeth": "DSC/DTA", "solvent": null, "footer": "", "data": [[["334.05", "0.5"]]], "dhead": [["Normal melting temperature, K"]], "phases": ["Crystal 1", "Liquid"], "constr": ["Pressure of 1 atm"], "components": [{"formula": "C<SUB>7</SUB>H<SUB>15</SUB>BF<SUB>4</SUB>N<SUB>2</SUB>", "idout": "AApINL", "sample": [["Source:", "synthesized by the authors"], ["Purification:", "estimated by the compiler"], ["Purity:", "98 mass %(chemical reagent treatment;dried by vacuum heating)"]], "name": "Butyronitriletrimethylammonium tetrafluoroborate", "mw": "214.01"}]}