{"ref": {"title": "THERMODYNAMIC INVESTIGATION OF ROOM TEMPERATURE IONIC LIQUID Heat capacity and thermodynamic functions of BPBF4", "full": "Zhang, Z.-H.; Sun, L.-X.; Tan, Z.-C.; Xu, F.; Lv, X.-C.; Zeng, J.-L.; Sawada, Y. (2007) J. Therm. Anal. Calorim. 89(1), 289-294."}, "title": "Phase transition properties: Normal melting temperature", "solvent": null, "expmeth": "Adiabatic calorimetry", "footer": "", "components": [{"mw": "223.02", "formula": "C<SUB>9</SUB>H<SUB>14</SUB>BF<SUB>4</SUB>N", "name": "1-butylpyridinium tetrafluoroborate", "idout": "AAquhL", "sample": [["Source:", "synthesized by the authors"], ["Purity analysis:", "crystallization from solution;dried by vacuum heating"]]}], "constr": ["Pressure of 1 atm"], "data": [[["279.79", "0.05"]]], "dhead": [["Normal melting temperature, K"]], "phases": ["Crystal 1", "Liquid"]}