{"footer": "", "solvent": null, "expmeth": "DSC/DTA", "title": "Phase transition properties: Normal melting temperature", "ref": {"title": "Low-Melting, Low-Viscous, Hydrophobic Ionic Liquids: Aliphatic Quaternary Ammonium Salts with Perfluoroalkyltrifluoroborates", "full": "Zhou, Z.-B.; Matsumoto, H.; Tatsumi, K. (2005) Chem. Eur. J. 11, 752-766."}, "phases": ["Crystal", "Liquid"], "dhead": [["Normal melting temperature, K"]], "data": [[["245.2", "1"]]], "components": [{"mw": "419.06", "formula": "C<SUB>11</SUB>H<SUB>18</SUB>BF<SUB>12</SUB>NO", "idout": "ABceaY", "sample": [["Source:", "synthesized by the authors"], ["Initial purification:", "estimation"], ["Initial purity:", "98 mass %"], ["Final purification:", "not known"], ["Final purity:", "0.005 water mass %"]], "name": "N-ethyl-2-methoxy-N,N-dimethylethan-1-aminium trifluoro(perfluorobutyl)borate"}], "constr": ["Pressure of 1 atm"]}