{"components": [{"sample": [["Source:", "synthesized by others"], ["Purity analysis:", "crystallization from solution"]], "idout": "ABerdf", "name": "N-heptyl-N,N,N-trihexylammonium nitrate", "formula": "C<SUB>25</SUB>H<SUB>54</SUB>N<SUB>2</SUB>O<SUB>3</SUB>", "mw": "430.72"}], "constr": ["Pressure of 1 atm"], "dhead": [["Normal melting temperature, K"]], "phases": ["Crystal", "Liquid"], "data": [[["345.15", "0.5"]]], "solvent": null, "expmeth": "", "footer": "", "title": "Phase transition properties: Normal melting temperature", "ref": {"title": "Fusion properties of some ionic quaternary ammonium compounds", "full": "Coker, T. G.; Ambrose, J.; Janz, G. J. (1970) J. Am. Chem. Soc. 92, 5293-5297."}}