{"ref": {"full": "Zhou, Z.-B.; Matsumoto, H.; Tatsumi, K. (2005) Chem. Eur. J. 11, 752-766.", "title": "Low-Melting, Low-Viscous, Hydrophobic Ionic Liquids: Aliphatic Quaternary Ammonium Salts with Perfluoroalkyltrifluoroborates"}, "title": "Phase transition properties: Normal melting temperature", "solvent": null, "expmeth": "DSC/DTA", "footer": "", "data": [[["327.1", "1"]]], "dhead": [["Normal melting temperature, K"]], "phases": ["Crystal 1", "Liquid"], "constr": ["Pressure of 1 atm"], "components": [{"formula": "C<SUB>12</SUB>H<SUB>20</SUB>BF<SUB>12</SUB>N", "name": "N,N-diethyl-N-methylpropan-1-aminium trifluoro(perfluorobutyl)borate", "idout": "ABcKgk", "sample": [["Source:", "synthesized by the authors"], ["Purification:", "estimation"], ["Purity:", "98 mass %"]], "mw": "417.09"}]}