{"phases": ["Crystal 1", "Liquid"], "dhead": [["Normal melting temperature, K"]], "data": [[["279.1", "1"]]], "constr": ["Pressure of 1 atm"], "components": [{"formula": "C<SUB>12</SUB>H<SUB>22</SUB>BF<SUB>10</SUB>NO", "idout": "ABYTgl", "sample": [["Source:", "synthesized by the authors"], ["Initial purification:", "estimation"], ["Initial purity:", "98 mass %"], ["Final purification:", "not known"], ["Final purity:", "0.005 water mass %"]], "name": "N,N,N-triethyl-2-methoxyethan-1-aminium trifluoro(perfluoropropyl)borate Chemical Formula: C12H22BF10NO", "mw": "397.11"}], "footer": "", "expmeth": "DSC/DTA", "solvent": null, "title": "Phase transition properties: Normal melting temperature", "ref": {"title": "Low-Melting, Low-Viscous, Hydrophobic Ionic Liquids: Aliphatic Quaternary Ammonium Salts with Perfluoroalkyltrifluoroborates", "full": "Zhou, Z.-B.; Matsumoto, H.; Tatsumi, K. (2005) Chem. Eur. J. 11, 752-766."}}