{"components": [{"mw": "381.11", "name": "N,N-diethyl-N-methylbutan-1-aminium trifluoro(perfluoropropyl)borate", "sample": [["Source:", "synthesized by the authors"], ["Purification:", "estimation"], ["Purity:", "98 mass %"]], "idout": "ABVPuU", "formula": "C<SUB>12</SUB>H<SUB>22</SUB>BF<SUB>10</SUB>N"}], "constr": ["Pressure of 1 atm"], "dhead": [["Normal melting temperature, K"]], "phases": ["Crystal 1", "Liquid"], "data": [[["323.1", "1"]]], "solvent": null, "expmeth": "DSC/DTA", "footer": "", "ref": {"title": "Low-Melting, Low-Viscous, Hydrophobic Ionic Liquids: Aliphatic Quaternary Ammonium Salts with Perfluoroalkyltrifluoroborates", "full": "Zhou, Z.-B.; Matsumoto, H.; Tatsumi, K. (2005) Chem. Eur. J. 11, 752-766."}, "title": "Phase transition properties: Normal melting temperature"}