{"data": [[["322.65", "0.5"]]], "phases": ["Crystal 1", "Liquid"], "dhead": [["Normal melting temperature, K"]], "components": [{"formula": "C<SUB>21</SUB>H<SUB>44</SUB>N<SUB>2</SUB>S", "name": "tetrapentylammonium thiocyanate", "sample": [["Source:", "synthesized by the authors"], ["Purity analysis:", "purification method described elsewhere"]], "idout": "ABQeJl", "mw": "356.66"}], "constr": ["Pressure of 1 atm"], "ref": {"full": "Coker, T. G.; Ambrose, J.; Janz, G. J. (1970) J. Am. Chem. Soc. 92, 5293-5297.", "title": "Fusion properties of some ionic quaternary ammonium compounds"}, "title": "Phase transition properties: Normal melting temperature", "footer": "", "solvent": null, "expmeth": ""}