{"phases": ["Crystal 1", "Liquid"], "dhead": [["Normal melting temperature, K"]], "data": [[["284.1", "1"]]], "components": [{"mw": "447.12", "name": "N,N,N-triethyl-2-methoxyethan-1-aminium trifluoro(perfluorobutyl)borate", "idout": "ABhzHv", "sample": [["Source:", "synthesized by the authors"], ["Initial purification:", "estimation"], ["Initial purity:", "98 mass %"], ["Final purification:", "not known"], ["Final purity:", "0.005 water mass %"]], "formula": "C<SUB>13</SUB>H<SUB>22</SUB>BF<SUB>12</SUB>NO"}], "constr": ["Pressure of 1 atm"], "footer": "", "solvent": null, "expmeth": "DSC/DTA", "title": "Phase transition properties: Normal melting temperature", "ref": {"full": "Zhou, Z.-B.; Matsumoto, H.; Tatsumi, K. (2005) Chem. Eur. J. 11, 752-766.", "title": "Low-Melting, Low-Viscous, Hydrophobic Ionic Liquids: Aliphatic Quaternary Ammonium Salts with Perfluoroalkyltrifluoroborates"}}