{"expmeth": "DSC/DTA", "solvent": null, "footer": "", "title": "Phase transition properties: Normal melting temperature", "ref": {"full": "Zhou, Z.-B.; Matsumoto, H.; Tatsumi, K. (2005) Chem. Eur. J. 11, 752-766.", "title": "Low-Melting, Low-Viscous, Hydrophobic Ionic Liquids: Aliphatic Quaternary Ammonium Salts with Perfluoroalkyltrifluoroborates"}, "dhead": [["Normal melting temperature, K"]], "phases": ["Crystal", "Liquid"], "data": [[["438.1", "1"]]], "constr": ["Pressure of 1 atm"], "components": [{"formula": "C<SUB>9</SUB>H<SUB>22</SUB>BF<SUB>4</SUB>N", "sample": [["Source:", "synthesized by the authors"], ["Purification:", "estimation"], ["Purity:", "97 mass %"]], "idout": "AAsWCG", "name": "N,N-diethyl-N-methylbutan-1-aminium tetrafluoroborate", "mw": "231.09"}]}