{"components": [{"mw": "205.00", "sample": [["Source:", "synthesized by the authors"], ["Purification:", "estimation"], ["Purity:", "97 mass %"]], "idout": "AAnWnF", "name": "2-methoxy-N,N,N-trimethylethan-1-aminium tetrafluoroborate", "formula": "C<SUB>6</SUB>H<SUB>16</SUB>BF<SUB>4</SUB>NO"}], "constr": ["Pressure of 1 atm"], "phases": ["Crystal", "Liquid"], "dhead": [["Normal melting temperature, K"]], "data": [[["327.1", "1"]]], "footer": "", "expmeth": "DSC/DTA", "solvent": null, "title": "Phase transition properties: Normal melting temperature", "ref": {"title": "Low-Melting, Low-Viscous, Hydrophobic Ionic Liquids: Aliphatic Quaternary Ammonium Salts with Perfluoroalkyltrifluoroborates", "full": "Zhou, Z.-B.; Matsumoto, H.; Tatsumi, K. (2005) Chem. Eur. J. 11, 752-766."}}