{"expmeth": "DSC/DTA", "solvent": null, "footer": "", "title": "Phase transition properties: Normal melting temperature", "ref": {"title": "Low-Melting, Low-Viscous, Hydrophobic Ionic Liquids: Aliphatic Quaternary Ammonium Salts with Perfluoroalkyltrifluoroborates", "full": "Zhou, Z.-B.; Matsumoto, H.; Tatsumi, K. (2005) Chem. Eur. J. 11, 752-766."}, "constr": ["Pressure of 1 atm"], "components": [{"name": "N,N-diethyl-2-methoxy-N-methylethan-1-aminium tetrafluoroborate", "sample": [["Source:", "synthesized by the authors"], ["Initial purification:", "estimation"], ["Initial purity:", "98 mass %"], ["Final purification:", "not known"], ["Final purity:", "0.06 water mass %"]], "idout": "AAsqUO", "formula": "C<SUB>8</SUB>H<SUB>20</SUB>BF<SUB>4</SUB>NO", "mw": "233.06"}], "dhead": [["Normal melting temperature, K"]], "phases": ["Crystal", "Liquid"], "data": [[["281.1", "1"]]]}