{"data": [[["329.1", "1"]]], "phases": ["Crystal", "Liquid"], "dhead": [["Normal melting temperature, K"]], "components": [{"name": "N,N,N-triethyl-2-methoxyethan-1-aminium tetrafluoroborate", "idout": "AAvaDD", "sample": [["Source:", "synthesized by the authors"], ["Purification:", "estimation"], ["Purity:", "98 mass %"]], "formula": "C<SUB>9</SUB>H<SUB>22</SUB>BF<SUB>4</SUB>NO", "mw": "247.08"}], "constr": ["Pressure of 1 atm"], "title": "Phase transition properties: Normal melting temperature", "ref": {"title": "Low-Melting, Low-Viscous, Hydrophobic Ionic Liquids: Aliphatic Quaternary Ammonium Salts with Perfluoroalkyltrifluoroborates", "full": "Zhou, Z.-B.; Matsumoto, H.; Tatsumi, K. (2005) Chem. Eur. J. 11, 752-766."}, "footer": "", "solvent": null, "expmeth": "DSC/DTA"}