{"constr": ["Pressure of 1 atm"], "components": [{"mw": "410.39", "formula": "C<SUB>10</SUB>H<SUB>20</SUB>F<SUB>6</SUB>N<SUB>2</SUB>O<SUB>4</SUB>S<SUB>2</SUB>", "sample": [["Source:", "synthesized by the authors"], ["Initial purification:", "estimation"], ["Initial purity:", "98 mass %"], ["Final purification:", "not known"], ["Final purity:", "0.005 water mass %"]], "idout": "ABavmU", "name": "N,N-diethyl-N-methylpropan-1-aminium bis((trifluoromethyl)sulfonyl)amide"}], "data": [[["287.1", "1"]]], "dhead": [["Normal melting temperature, K"]], "phases": ["Crystal 1", "Liquid"], "title": "Phase transition properties: Normal melting temperature", "ref": {"title": "Low-Melting, Low-Viscous, Hydrophobic Ionic Liquids: Aliphatic Quaternary Ammonium Salts with Perfluoroalkyltrifluoroborates", "full": "Zhou, Z.-B.; Matsumoto, H.; Tatsumi, K. (2005) Chem. Eur. J. 11, 752-766."}, "solvent": null, "expmeth": "DSC/DTA", "footer": ""}