{"phases": ["Crystal 1", "Liquid"], "dhead": [["Normal melting temperature, K"]], "data": [[["396.15", "0.5"]]], "constr": ["Pressure of 1 atm"], "components": [{"mw": "537.70", "formula": "C<SUB>28</SUB>H<SUB>60</SUB>IN", "name": "1-heptanaminmium, N,N,N-triheptyl-, iodide", "sample": [["Source:", "commercial source"]], "idout": "ABzUME"}], "footer": "", "solvent": null, "expmeth": "", "ref": {"full": "Coker, T. G.; Ambrose, J.; Janz, G. J. (1970) J. Am. Chem. Soc. 92, 5293-5297.", "title": "Fusion properties of some ionic quaternary ammonium compounds"}, "title": "Phase transition properties: Normal melting temperature"}