{"expmeth": "DSC/DTA", "solvent": null, "footer": "", "ref": {"full": "Zhou, Z.-B.; Matsumoto, H.; Tatsumi, K. (2005) Chem. Eur. J. 11, 752-766.", "title": "Low-Melting, Low-Viscous, Hydrophobic Ionic Liquids: Aliphatic Quaternary Ammonium Salts with Perfluoroalkyltrifluoroborates"}, "title": "Phase transition properties: Normal melting temperature", "components": [{"formula": "C<SUB>7</SUB>H<SUB>16</SUB>BF<SUB>6</SUB>NO", "idout": "AAxCEs", "sample": [["Source:", "synthesized by the authors"], ["Purification:", "estimation"], ["Purity:", "98 mass %"]], "name": "2-methoxy-N,N,N-trimethylethan-1-aminium trifluoro(trifluoromethyl)borate", "mw": "255.01"}], "constr": ["Pressure of 1 atm"], "dhead": [["Normal melting temperature, K"]], "phases": ["Crystal 1", "Liquid"], "data": [[["350.1", "1"]]]}