{"footer": "", "expmeth": "DSC/DTA", "solvent": null, "ref": {"full": "Zhou, Z.-B.; Matsumoto, H.; Tatsumi, K. (2005) Chem. Eur. J. 11, 752-766.", "title": "Low-Melting, Low-Viscous, Hydrophobic Ionic Liquids: Aliphatic Quaternary Ammonium Salts with Perfluoroalkyltrifluoroborates"}, "title": "Phase transition properties: Normal melting temperature", "components": [{"mw": "269.04", "formula": "C<SUB>8</SUB>H<SUB>18</SUB>BF<SUB>6</SUB>NO", "name": "2-methoxy-N-ethyl-N,N-dimethylethan-1-aminium trifluoro(trifluoromethyl)borate", "idout": "AAzmGh", "sample": [["Source:", "synthesized by the authors"], ["Initial purification:", "estimation"], ["Initial purity:", "98 mass %"], ["Final purification:", "not known"], ["Final purity:", "0.005 water mass %"]]}], "constr": ["Pressure of 1 atm"], "phases": ["Crystal 1", "Liquid"], "dhead": [["Normal melting temperature, K"]], "data": [[["281.1", "1"]]]}