{"dhead": [["Normal melting temperature, K"]], "phases": ["Crystal", "Liquid"], "data": [[["337.06", "0.5"]]], "constr": ["Pressure of 1 atm"], "components": [{"mw": "387.45", "name": "1-hexadecyl-3-methylimidazolium bromide", "sample": [["Source:", "synthesized by the authors"], ["Purification:", "Karl Fischer titration"], ["Purity:", "0.05 water mass %(dried by vacuum heating)"]], "idout": "ABWaaF", "formula": "C<SUB>20</SUB>H<SUB>39</SUB>BrN<SUB>2</SUB>"}], "expmeth": "DSC/DTA", "solvent": null, "footer": "", "ref": {"title": "Thermodynamical properties of phase change materials based on ionic liquids", "full": "Zhu, J.; Bai, L.; Chen, B.; Fei, W. (2009) Chem. Eng. J. 147, 58-62."}, "title": "Phase transition properties: Normal melting temperature"}