{"ref": {"title": "Fusion properties of some ionic quaternary ammonium compounds", "full": "Coker, T. G.; Ambrose, J.; Janz, G. J. (1970) J. Am. Chem. Soc. 92, 5293-5297."}, "title": "Phase transition properties: Normal melting temperature", "solvent": null, "expmeth": "", "footer": "", "data": [[["383.15", "0.5"]]], "dhead": [["Normal melting temperature, K"]], "phases": ["Crystal 1", "Liquid"], "components": [{"formula": "C<SUB>24</SUB>H<SUB>52</SUB>ClNO<SUB>4</SUB>", "name": "tetrahexylammonium perchlorate", "idout": "ABjRqg", "sample": [["Source:", "synthesized by others"], ["Purity analysis:", "crystallization from solution"]], "mw": "454.13"}], "constr": ["Pressure of 1 atm"]}