{"solvent": null, "expmeth": "DSC/DTA", "footer": "", "ref": {"full": "Zhu, J.; Bai, L.; Chen, B.; Fei, W. (2009) Chem. Eng. J. 147, 58-62.", "title": "Thermodynamical properties of phase change materials based on ionic liquids"}, "title": "Phase transition properties: Normal melting temperature", "components": [{"mw": "303.29", "formula": "C<SUB>14</SUB>H<SUB>27</SUB>BrN<SUB>2</SUB>", "idout": "ABGQla", "sample": [["Source:", "synthesized by the authors"], ["Purification:", "Karl Fischer titration"], ["Purity:", "0.05 water mass %(dried by vacuum heating)"]], "name": "1-decyl-3-methylimidazolium bromide"}], "constr": ["Pressure of 1 atm"], "dhead": [["Normal melting temperature, K"]], "phases": ["Crystal", "Liquid"], "data": [[["347.58", "0.5"]]]}