{"footer": "", "expmeth": "DSC/DTA", "solvent": null, "ref": {"title": "Thermodynamical properties of phase change materials based on ionic liquids", "full": "Zhu, J.; Bai, L.; Chen, B.; Fei, W. (2009) Chem. Eng. J. 147, 58-62."}, "title": "Phase transition properties: Normal melting temperature", "constr": ["Pressure of 1 atm"], "components": [{"mw": "237.00", "name": "tris(2-hydroxyethyl)ammonium tetrafluoroborate", "idout": "AAteWy", "sample": [["Source:", "synthesized by others"], ["Purification:", "Karl Fischer titration"], ["Purity:", "0.05 water mass %(dried by vacuum heating)"]], "formula": "C<SUB>6</SUB>H<SUB>16</SUB>BF<SUB>4</SUB>NO<SUB>3</SUB>"}], "phases": ["Crystal", "Liquid"], "dhead": [["Normal melting temperature, K"]], "data": [[["345.26", "0.5"]]]}