{"constr": ["Pressure of 1 atm"], "components": [{"mw": "192.95", "name": "diethanolammonium tetrafluoroborate", "sample": [["Source:", "synthesized by others"], ["Purification:", "Karl Fischer titration"], ["Purity:", "0.05 water mass %(dried by vacuum heating)"]], "idout": "AAlFaj", "formula": "C<SUB>4</SUB>H<SUB>12</SUB>BF<SUB>4</SUB>NO<SUB>2</SUB>"}], "dhead": [["Normal melting temperature, K"]], "phases": ["Crystal", "Liquid"], "data": [[["303.84", "0.5"]]], "expmeth": "DSC/DTA", "solvent": null, "footer": "", "title": "Phase transition properties: Normal melting temperature", "ref": {"full": "Zhu, J.; Bai, L.; Chen, B.; Fei, W. (2009) Chem. Eng. J. 147, 58-62.", "title": "Thermodynamical properties of phase change materials based on ionic liquids"}}