{"phases": ["Crystal", "Liquid"], "dhead": [["Normal melting temperature, K"]], "data": [[["306.76", "0.5"]]], "constr": ["Pressure of 1 atm"], "components": [{"formula": "C<SUB>2</SUB>H<SUB>8</SUB>BF<SUB>4</SUB>NO", "name": "2-hydroxyethanaminium tetrafluoroborate", "idout": "AAcgwh", "sample": [["Source:", "synthesized by others"], ["Purification:", "Karl Fischer titration"], ["Purity:", "0.05 water mass %(dried by vacuum heating)"]], "mw": "148.90"}], "footer": "", "expmeth": "DSC/DTA", "solvent": null, "ref": {"title": "Thermodynamical properties of phase change materials based on ionic liquids", "full": "Zhu, J.; Bai, L.; Chen, B.; Fei, W. (2009) Chem. Eng. J. 147, 58-62."}, "title": "Phase transition properties: Normal melting temperature"}