{"expmeth": "DSC/DTA", "solvent": null, "footer": "", "title": "Phase transition properties: Normal melting temperature", "ref": {"title": "Thermodynamical properties of phase change materials based on ionic liquids", "full": "Zhu, J.; Bai, L.; Chen, B.; Fei, W. (2009) Chem. Eng. J. 147, 58-62."}, "dhead": [["Normal melting temperature, K"]], "phases": ["Crystal", "Liquid"], "data": [[["365.89", "0.5"]]], "components": [{"formula": "C<SUB>9</SUB>H<SUB>17</SUB>ClN<SUB>2</SUB>", "sample": [["Source:", "synthesized by the authors"], ["Purification:", "Karl Fischer titration"], ["Purity:", "0.05 water mass %(dried by vacuum heating)"]], "idout": "AAkOOP", "name": "1-butyl-2,3-dimethylimidazolium chloride", "mw": "188.70"}], "constr": ["Pressure of 1 atm"]}