{"phases": ["Crystal", "Liquid"], "dhead": [["Normal melting temperature, K"]], "data": [[["361.6", "1.1"]]], "components": [{"name": "hydroxylammonium perchlorate", "sample": [["Source:", "synthesized by the authors"], ["Purity:", "99.92 mol %(dried by vacuum heating;solvent extraction)"]], "idout": "AAZiYA", "formula": "ClH<SUB>4</SUB>NO<SUB>5</SUB>", "mw": "133.48"}], "constr": ["Pressure of 1 atm"], "footer": "", "solvent": null, "expmeth": "Visual observation", "title": "Phase transition properties: Normal melting temperature", "ref": {"title": "Heat of Formation of Hydroxylammonium Perchlorate by Combustion Calorimetry", "full": "Zimmer, M. F.; Baroody, E. E.; Carpenter, G. A.; Robb, R. A. (1968) J. Chem. Eng. Data 13(2), 212-214."}}