{"solvent": null, "expmeth": "DSC/DTA", "footer": "", "ref": {"title": "Structural, analytical and DSC references to resolution of 2-methoxy-2-phenylacetic acid with chiral 1-cyclohexylethylamines through gas-antisolvent precipitation", "full": "Zodge, A. D.; Bombicz, P.; Szekely, E.; Pokol, G.; Madarasz, J. (2017) Thermochim. Acta 648, 23-31."}, "title": "Phase transition properties: Normal melting temperature", "components": [{"mw": "293.41", "idout": "ABEWqF", "sample": [["Source:", "synthesized by the authors"], ["Purification:", "estimation"], ["Purity:", "98 % (basis not specified)"]], "name": "(R)-1-cyclohexylethan-1-aminium (S)-2-methoxy-2-phenylacetate", "formula": "C<SUB>17</SUB>H<SUB>27</SUB>NO<SUB>3</SUB>"}], "constr": ["Pressure of 1 atm"], "dhead": [["Normal melting temperature, K"]], "phases": ["Crystal", "Liquid"], "data": [[["460.55", "0.5"]]]}