{"solvent": null, "expmeth": "DSC/DTA", "footer": "", "ref": {"full": "Couadou, E.; Jacquemin, J.; Galiano, H.; Hardacre, C.; Anouti, M. (2013) J. Phys. Chem. B 117, 1389-1402.", "title": "A Comparative Study on the Thermophysical Properties for Two Bis[(trifluoromethyl)sulfonyl]imide-Based Ionic Liquids Containing the Trimethyl-Sulfonium or the Trimethyl-Ammonium Cation in Molecular Solvents"}, "title": "Phase transition properties: Normal melting temperature", "dhead": [["Normal melting temperature, K"]], "phases": ["Crystal", "Liquid"], "data": [[["357.35", "0.5"]]], "components": [{"mw": "340.26", "name": "trimethylammonium bis((trifluoromethyl)sulfonyl)amide", "idout": "ABNWGA", "sample": [["Source:", "commercial source"], ["Initial purification:", "stated by supplier"], ["Initial purity:", "97 mass %"], ["Final purification:", "Karl Fischer titration"], ["Final purity:", "0.1 water mass %"]], "formula": "C<SUB>5</SUB>H<SUB>10</SUB>F<SUB>6</SUB>N<SUB>2</SUB>O<SUB>4</SUB>S<SUB>2</SUB>"}], "constr": ["Pressure of 1 atm"]}