{"footer": "", "solvent": null, "expmeth": "DSC/DTA", "title": "Phase transition properties: Normal melting temperature", "ref": {"full": "Zodge, A. D.; Bombicz, P.; Szekely, E.; Pokol, G.; Madarasz, J. (2017) Thermochim. Acta 648, 23-31.", "title": "Structural, analytical and DSC references to resolution of 2-methoxy-2-phenylacetic acid with chiral 1-cyclohexylethylamines through gas-antisolvent precipitation"}, "constr": ["Pressure of 1 atm"], "components": [{"mw": "293.41", "name": "(S)-1-cyclohexylethan-1-aminium (S)-2-methoxy-2-phenylacetate", "idout": "ABEWzP", "sample": [["Source:", "synthesized by the authors"], ["Purification:", "estimation"], ["Purity:", "98 % (basis not specified)"]], "formula": "C<SUB>17</SUB>H<SUB>27</SUB>NO<SUB>3</SUB>"}], "phases": ["Crystal 1", "Liquid"], "dhead": [["Normal melting temperature, K"]], "data": [[["436.05", "0.5"]]]}