{"phases": ["Crystal", "Liquid"], "dhead": [["Normal melting temperature, K"]], "data": [[["384.71", "0.5"]]], "constr": ["Pressure of 1 atm"], "components": [{"formula": "C<SUB>12</SUB>H<SUB>20</SUB>F<SUB>12</SUB>N<SUB>4</SUB>P<SUB>2</SUB>", "name": "3,3'-(butane-1,4-diyl)bis(1-methyl-1H-imidazolium) hexafluorophosphate(V)", "idout": "ABuGJu", "sample": [["Source:", "synthesized by the authors"], ["Purification:", "HPLC"], ["Purity:", "99.95 mass %"]], "mw": "510.25"}], "footer": "", "expmeth": "DSC/DTA", "solvent": null, "ref": {"title": "M easurement and modeling of the molar heat capacity of the  dicationic ionic liquid[C4(MIM )2][PF6]2", "full": "yang, x.; Wang, J.; Sun, X. (2011) Beijing Huagong Daxue Xuebao, Ziran Kexueban 38(2), 27-31."}, "title": "Phase transition properties: Normal melting temperature"}