{"ref": {"title": "A differential thermal analysis study of phase transitions in some mercury(II) carboxylates", "full": "Adeosun, S. O. (1978) J. Therm. Anal. 14, 235-43."}, "title": "Phase transition properties: Normal melting temperature", "solvent": null, "expmeth": "", "footer": "", "data": [[["387", "0.2"]]], "dhead": [["Normal melting temperature, K"]], "phases": ["Crystal 1", "Liquid"], "constr": ["Pressure of 1 atm"], "components": [{"formula": "C<SUB>28</SUB>H<SUB>54</SUB>HgO<SUB>4</SUB>", "name": "mercury(II) tetradecanoate", "sample": [["Source:", "synthesized by the authors"], ["Purification:", "spectroscopy"], ["Purity analysis:", "chemical reagent treatment"]], "idout": "ACWBOh", "mw": "655.33"}]}