{"components": [{"mw": "357.30", "name": "trimethylsulfonium bis(trifluoromethylsulfonyl)imide", "idout": "ABQlMs", "sample": [["Source:", "commercial source"], ["Initial purification:", "stated by supplier"], ["Initial purity:", "97 mass %"], ["Final purification:", "Karl Fischer titration"], ["Final purity:", "0.0600 water mass %"]], "formula": "C<SUB>5</SUB>H<SUB>9</SUB>F<SUB>6</SUB>NO<SUB>4</SUB>S<SUB>3</SUB>"}], "constr": ["Pressure of 1 atm"], "dhead": [["Normal melting temperature, K"]], "phases": ["Crystal", "Liquid"], "data": [[["322.43", "0.5"]]], "expmeth": "DSC/DTA", "solvent": null, "footer": "", "title": "Phase transition properties: Normal melting temperature", "ref": {"full": "Couadou, E.; Jacquemin, J.; Galiano, H.; Hardacre, C.; Anouti, M. (2013) J. Phys. Chem. B 117, 1389-1402.", "title": "A Comparative Study on the Thermophysical Properties for Two Bis[(trifluoromethyl)sulfonyl]imide-Based Ionic Liquids Containing the Trimethyl-Sulfonium or the Trimethyl-Ammonium Cation in Molecular Solvents"}}