{"title": "Phase transition properties: Normal melting temperature", "ref": {"title": "Measurements and Correlation of the (Solid + Liquid) Equilibria of [1-Decyl-3-methylimidazolium Chloride + Alcohols (C2-C12)]", "full": "Domanska, U.; Bogel-Lukasik, E. (2003) Ind. Eng. Chem. Res. 42(26), 6986-6992."}, "footer": "", "solvent": null, "expmeth": "DSC/DTA", "data": [[["311.2", "2"]]], "phases": ["Crystal 1", "Liquid"], "dhead": [["Normal melting temperature, K"]], "constr": ["Pressure of 1 atm"], "components": [{"name": "1-decyl-3-methylimidazolium chloride", "sample": [["Source:", "commercial source"], ["Purification:", "stated by supplier"], ["Purity:", "98 mass %"], ["Purity analysis:", "none used"]], "idout": "AAxoGx", "formula": "C<SUB>14</SUB>H<SUB>27</SUB>ClN<SUB>2</SUB>", "mw": "258.83"}]}