{"footer": "", "solvent": null, "expmeth": "Visual observation", "ref": {"full": "Domanska, U.; Bogel-Lukasik, R. (2005) J. Phys. Chem. B 109, 12124-12132.", "title": "Physicochemical Properties and Solubility of  Alkyl-(2-hydroxyethyl)-dimethylammonium Bromide "}, "title": "Phase transition properties: Normal melting temperature", "components": [{"mw": "212.13", "name": "N-(2-hydroxyethyl)-N,N-dimethylpropanaminium bromide", "idout": "AAopAX", "sample": [["Source:", "synthesized by the authors"], ["Purification:", "estimated by the compiler;Karl Fischer titration"], ["Purity:", "99 % (basis not specified);0.021 water mass %(crystallization from solution)"]], "formula": "C<SUB>7</SUB>H<SUB>18</SUB>BrNO"}], "constr": ["Pressure of 1 atm"], "phases": ["Crystal", "Liquid"], "dhead": [["Normal melting temperature, K"]], "data": [[["372.59", "0.16"]]]}