{"phases": ["Crystal", "Liquid"], "dhead": [["Normal melting temperature, K"]], "data": [[["359.3", "7.2"]]], "components": [{"mw": "226.16", "sample": [["Source:", "synthesized by the authors"], ["Purification:", "estimated by the compiler;Karl Fischer titration"], ["Purity:", "99 % (basis not specified);0.027 water mass %(crystallization from solution)"]], "idout": "AArZko", "name": "N-(2-hydroxyethyl)-N,N-dimethylbutanaminium bromide", "formula": "C<SUB>8</SUB>H<SUB>20</SUB>BrNO"}], "constr": ["Pressure of 1 atm"], "footer": "", "solvent": null, "expmeth": "DSC/DTA", "title": "Phase transition properties: Normal melting temperature", "ref": {"full": "Domanska, U.; Bogel-Lukasik, R. (2005) J. Phys. Chem. B 109, 12124-12132.", "title": "Physicochemical Properties and Solubility of  Alkyl-(2-hydroxyethyl)-dimethylammonium Bromide "}}