{"footer": "", "solvent": null, "expmeth": "DSC/DTA", "ref": {"full": "Domanska, U.; Bogel-Lukasik, R. (2005) J. Phys. Chem. B 109, 12124-12132.", "title": "Physicochemical Properties and Solubility of  Alkyl-(2-hydroxyethyl)-dimethylammonium Bromide "}, "title": "Phase transition properties: Normal melting temperature", "constr": ["Pressure of 1 atm"], "components": [{"formula": "C<SUB>10</SUB>H<SUB>24</SUB>BrNO", "name": "N-(2-hydroxyethyl)-N,N-dimethylhexan-1-aminium bromide", "idout": "AAwuRR", "sample": [["Source:", "synthesized by the authors"], ["Purification:", "estimated by the compiler;Karl Fischer titration"], ["Purity:", "99 % (basis not specified);0.03 water mass %(crystallization from solution)"]], "mw": "254.21"}], "phases": ["Crystal", "Liquid"], "dhead": [["Normal melting temperature, K"]], "data": [[["355.3", "7.1"]]]}