{"constr": ["Pressure of 1 atm"], "components": [{"mw": "349.49", "name": "1-hexyl-3-methylpyridinium 4-methylbenzenesulfonate", "sample": [["Source:", "synthesized by the authors"], ["Initial purification:", "NMR (proton)"], ["Initial purity:", "98 mass %"], ["Final purification:", "Karl Fischer titration"], ["Final purity:", "0.3 halide impurity mass %;0.028 water mass %"]], "idout": "ABPKBd", "formula": "C<SUB>19</SUB>H<SUB>27</SUB>NO<SUB>3</SUB>S"}], "phases": ["Crystal", "Liquid"], "dhead": [["Normal melting temperature, K"]], "data": [[["329.3", "0.4"]]], "footer": "", "expmeth": "Visual observation", "solvent": null, "ref": {"full": "Domanska, U.; Krolikowski, M. (2011) J. Chem. Thermodyn. 43(10), 1488-1494.", "title": "Phase equilibrium study of the binary systems (N-hexyl-3-methylpyridinium tosylate ionic liquid + water, or organic solvent)"}, "title": "Phase transition properties: Normal melting temperature"}