{"footer": "", "solvent": null, "expmeth": "DSC/DTA", "ref": {"full": "Domanska, U.; Marciniak, A. (2003) J. Chem. Eng. Data 48(3), 451-456.", "title": "Solubility of 1-Alkyl-3-methylimidazolium Hexafluorophosphate in Hydrocarbons"}, "title": "Phase transition properties: Normal melting temperature", "constr": ["Pressure of 1 atm"], "components": [{"name": "1-butyl-3-methylimidazolium hexafluorophosphate", "sample": [["Source:", "commercial source"], ["Purification:", "fraction melting in an adiabatic calorimeter"], ["Purity:", "99.2 mass %(none used)"]], "idout": "ABChPJ", "formula": "C<SUB>8</SUB>H<SUB>15</SUB>F<SUB>6</SUB>N<SUB>2</SUB>P", "mw": "284.19"}], "phases": ["Crystal 1", "Liquid"], "dhead": [["Normal melting temperature, K"]], "data": [[["276.4", "1"]]]}