{"data": [[["393.2", "0.2"]]], "phases": ["Crystal 1", "Liquid"], "dhead": [["Normal melting temperature, K"]], "constr": ["Pressure of 1 atm"], "components": [{"name": "mercury(II) stearate", "idout": "ACrfvu", "sample": [["Source:", "synthesized by the authors"], ["Purification:", "spectroscopy"], ["Purity analysis:", "chemical reagent treatment"]], "formula": "C<SUB>36</SUB>H<SUB>70</SUB>HgO<SUB>4</SUB>", "mw": "767.54"}], "title": "Phase transition properties: Normal melting temperature", "ref": {"title": "A differential thermal analysis study of phase transitions in some mercury(II) carboxylates", "full": "Adeosun, S. O. (1978) J. Therm. Anal. 14, 235-43."}, "footer": "", "expmeth": "", "solvent": null}