{"components": [{"formula": "C<SUB>6</SUB>H<SUB>11</SUB>F<SUB>6</SUB>N<SUB>2</SUB>P", "name": "1-ethyl-3-methylimidazolium hexafluorophosphate", "sample": [["Source:", "commercial source"], ["Purification:", "not known"], ["Purity:", "98 mass %(none used)"]], "idout": "AAxNWt", "mw": "256.13"}], "constr": ["Pressure of 1 atm"], "data": [[["332.8", "1"]]], "phases": ["Crystal", "Liquid"], "dhead": [["Normal melting temperature, K"]], "ref": {"full": "Domanska, U.; Marciniak, A. (2003) J. Chem. Eng. Data 48(3), 451-456.", "title": "Solubility of 1-Alkyl-3-methylimidazolium Hexafluorophosphate in Hydrocarbons"}, "title": "Phase transition properties: Normal melting temperature", "footer": "", "solvent": null, "expmeth": "DSC/DTA"}