{"dhead": [["Normal melting temperature, K"]], "phases": ["Crystal", "Liquid"], "data": [[["277.15", "0.5"]]], "constr": ["Pressure of 1 atm"], "components": [{"formula": "C<SUB>8</SUB>H<SUB>15</SUB>F<SUB>6</SUB>N<SUB>2</SUB>P", "name": "1-butyl-3-methylimidazolium hexafluorophosphate", "idout": "ABChPJ", "sample": [["Source:", "commercial source"], ["Purification:", "DSC"], ["Purity:", "98 mass %"], ["Purity analysis:", "none used"]], "mw": "284.19"}], "expmeth": "Visual observation", "solvent": null, "footer": "", "title": "Phase transition properties: Normal melting temperature", "ref": {"title": "Solubility of 1,3-dialkylimidazolium chloride or hexafluorophosphate or methylsulfonate in organic solvents: effect of the anions on solubility", "full": "Domanska, U.; Mazurowska, L. (2004) Fluid Phase Equilib. 221(1-2), 73-82."}}