{"ref": {"title": "Influence of high pressure on solubility of ionic liquids: experimental data and correlation", "full": "Domanska, U.; Morawski, P. (2007) Green Chem. 9, 361-368."}, "title": "Phase transition properties: Normal melting temperature", "footer": "", "expmeth": "DSC/DTA", "solvent": null, "data": [[["308.9", "0.5"]]], "phases": ["Crystal", "Liquid"], "dhead": [["Normal melting temperature, K"]], "constr": ["Pressure of 1 atm"], "components": [{"mw": "208.23", "sample": [["Source:", "commercial source"], ["Initial purification:", "stated by supplier"], ["Initial purity:", "98 mass %"], ["Final purification:", "Karl Fischer titration"], ["Final purity:", "0.016 water mass %(dried by oven heating)"]], "idout": "AAoCDE", "name": "1,3-dimethylimidazolium methylsulfate", "formula": "C<SUB>6</SUB>H<SUB>12</SUB>N<SUB>2</SUB>O<SUB>4</SUB>S"}]}