{"footer": "", "solvent": null, "expmeth": "DSC/DTA", "ref": {"title": "Thermodynamics and limiting activity coefficients measurements for organic solutes and water in the ionic liquid 1-dodecyl-3-methylimidzolium bis(trifluoromethylsulfonyl) imide", "full": "Domanska, U.; Wlazlo, M. (2016) J. Chem. Thermodyn. 103, 76-85."}, "title": "Phase transition properties: Normal melting temperature", "constr": ["Pressure of 1 atm"], "components": [{"name": "1-dodecyl-3-methyl-1H-imidazolium bis(trifluoromethylsulfonyl)amide", "sample": [["Source:", "commercial source"], ["Initial purification:", "stated by supplier"], ["Initial purity:", "98 mass %"], ["Final purification:", "Karl Fischer titration"], ["Final purity:", "0.037 water mass %(dried by vacuum heating)"]], "idout": "AByLyJ", "formula": "C<SUB>18</SUB>H<SUB>31</SUB>F<SUB>6</SUB>N<SUB>3</SUB>O<SUB>4</SUB>S<SUB>2</SUB>", "mw": "531.57"}], "phases": ["Crystal", "Liquid"], "dhead": [["Normal melting temperature, K"]], "data": [[["292.4", "0.4"]]]}