{"data": [[["341.95", "0.5"]]], "phases": ["Crystal", "Liquid"], "dhead": [["Normal melting temperature, K"]], "components": [{"mw": "174.67", "formula": "C<SUB>8</SUB>H<SUB>15</SUB>ClN<SUB>2</SUB>", "name": "1-butyl-3-methylimidazolium chloride", "sample": [["Source:", "commercial source"], ["Purification:", "stated by supplier"], ["Purity:", "98 mass %"], ["Purity analysis:", "unspecified"]], "idout": "AAhedZ"}], "constr": ["Pressure of 1 atm"], "title": "Phase transition properties: Normal melting temperature", "ref": {"full": "Domanska, U.; Bogel-Lukasik, E.; Bogel-Lukasik, R. (2003) Chem. Eur. J. 9, 3033-3041.", "title": "1-Octanol/Water Partition Coefficients of 1Alkyl-3-methylimidazolium Chloride"}, "footer": "", "expmeth": "DSC/DTA", "solvent": null}