{"phases": ["Crystal 1", "Liquid"], "dhead": [["Normal melting temperature, K"]], "data": [[["383.7", "0.1"]]], "components": [{"formula": "C<SUB>22</SUB>H<SUB>42</SUB>O<SUB>4</SUB>Pb", "name": "lead(2+) diundecanoate", "idout": "ACHFkB", "sample": [["Source:", "synthesized by the authors"], ["Purity analysis:", "crystallization from solution"]], "mw": "577.77"}], "constr": ["Pressure of 1 atm"], "footer": "", "solvent": null, "expmeth": "", "ref": {"title": "The properties of molten carboxylates: Part 7. Odd-even variations in melting and mesophase formation in the lead(II) carboxylates", "full": "Adeosun, S. O.; Sime, S. J. (1978) Thermochim. Acta 27(1-3), 319-327."}, "title": "Phase transition properties: Normal melting temperature"}