{"footer": "", "solvent": null, "expmeth": "DSC/DTA", "title": "Phase transition properties: Normal melting temperature", "ref": {"title": "Liquid liquid equilibria in the binary systems (1,3-dimethylimidazolium, or 1-butyl-3-methylimidazolium methylsulfate + hydrocarbons)", "full": "Domanska, U.; Pobudkowska, A.; Eckert, F. (2006) Green Chem. 8, 268-276."}, "constr": ["Pressure of 1 atm"], "components": [{"formula": "C<SUB>6</SUB>H<SUB>12</SUB>N<SUB>2</SUB>O<SUB>4</SUB>S", "sample": [["Source:", "commercial source"], ["Purification:", "stated by supplier"], ["Purity:", "98 mass %"]], "idout": "AAoCDE", "name": "1,3-dimethylimidazolium methylsulfate", "mw": "208.23"}], "phases": ["Crystal", "Liquid"], "dhead": [["Normal melting temperature, K"]], "data": [[["308.9", "3.1"]]]}