{"dhead": [["Normal melting temperature, K"]], "phases": ["Crystal", "Liquid"], "data": [[["355.5", "0.5"]]], "constr": ["Pressure of 1 atm"], "components": [{"formula": "C<SUB>10</SUB>H<SUB>24</SUB>BrNO", "name": "N-(2-hydroxyethyl)-N,N-dimethylhexan-1-aminium bromide", "sample": [["Source:", "synthesized by the authors"], ["Purification:", "Karl Fischer titration"], ["Purity:", "0.018 water mass %(chemical reagent treatment;dried by vacuum heating)"]], "idout": "AAwuRR", "mw": "254.21"}], "expmeth": "DSC/DTA", "solvent": null, "footer": "", "title": "Phase transition properties: Normal melting temperature", "ref": {"title": "Thermodynamic Phase Behavior of Ionic Liquids", "full": "Domanska, U.; Zolek-Tryznowska, Z.; Krolikowski, M. (2007) J. Chem. Eng. Data 52(5), 1872-1880."}}