{"phases": ["Crystal 1", "Liquid"], "dhead": [["Normal melting temperature, K"]], "data": [[["283.5", "0.5"]]], "constr": ["Pressure of 1 atm"], "components": [{"formula": "C<SUB>18</SUB>H<SUB>36</SUB>N<SUB>4</SUB>O<SUB>2</SUB>", "sample": [["Source:", "synthesized by the authors"], ["Purification:", "Karl Fischer titration"], ["Purity:", "0.018 water mass %(chemical reagent treatment;dried by vacuum heating)"]], "idout": "ABNZEQ", "name": "(2-hydroxyethyl)-dimethylundecyloxymethylammonium dicyanamide", "mw": "340.51"}], "footer": "", "solvent": null, "expmeth": "DSC/DTA", "title": "Phase transition properties: Normal melting temperature", "ref": {"full": "Domanska, U.; Zolek-Tryznowska, Z.; Krolikowski, M. (2007) J. Chem. Eng. Data 52(5), 1872-1880.", "title": "Thermodynamic Phase Behavior of Ionic Liquids"}}