{"solvent": null, "expmeth": "DSC/DTA", "footer": "", "ref": {"title": "Thermodynamic Phase Behavior of Ionic Liquids", "full": "Domanska, U.; Zolek-Tryznowska, Z.; Krolikowski, M. (2007) J. Chem. Eng. Data 52(5), 1872-1880."}, "title": "Phase transition properties: Normal melting temperature", "components": [{"mw": "457.58", "name": "(2-decanoyloxyethyl)dimethylpentyloxymethylammonium trifluoroacetate", "sample": [["Source:", "synthesized by the authors"], ["Purification:", "Karl Fischer titration"], ["Purity:", "0.018 water mass %(chemical reagent treatment;dried by vacuum heating)"]], "idout": "ABjzAG", "formula": "C<SUB>22</SUB>H<SUB>42</SUB>F<SUB>3</SUB>NO<SUB>5</SUB>"}], "constr": ["Pressure of 1 atm"], "dhead": [["Normal melting temperature, K"]], "phases": ["Crystal 1", "Liquid"], "data": [[["279.8", "0.5"]]]}