{"dhead": [["Normal melting temperature, K"]], "phases": ["Crystal", "Liquid"], "data": [[["329.3", "0.5"]]], "components": [{"mw": "349.49", "name": "1-hexyl-3-methylpyridinium 4-methylbenzenesulfonate", "sample": [["Source:", "commercial source"], ["Initial purification:", "stated by supplier"], ["Initial purity:", "98 mass %"], ["Final purification:", "Karl Fischer titration"], ["Final purity:", "0.026 water mass %(de-gassed by evacuation)"]], "idout": "ABPKBd", "formula": "C<SUB>19</SUB>H<SUB>27</SUB>NO<SUB>3</SUB>S"}], "constr": ["Pressure of 1 atm"], "expmeth": "DSC/DTA", "solvent": null, "footer": "", "ref": {"title": "Phase equilibria study of the binary systems (ionic liquid + thiophene):  Desulphurization process", "full": "Domanska, U.; Krolikowski, M.; Slesinska, K. (2009) J. Chem. Thermodyn. 41(11), 1303-1311."}, "title": "Phase transition properties: Normal melting temperature"}