{"data":[[["298.15"],["101.325"],["1321","1"]],[["308.15"],["101.325"],["1312","1"]]],"expmeth":"Pycnometric method","phases":["Liquid"],"ref":{"title":"Experimental Vapor Pressures of 1-Alkyl-3-methylimidazolium Bis(trifluoromethylsulfonyl)imides and a Correlation Scheme for Estimation of Vaporization Enthalpies of Ionic Liquids","full":"Zaitsau, D. H.; Kabo, G. J.; Strechan, A. A.; Paulechka, Y. U.; Tschersich, A.; Verevkin, S. P.; Heintz, A. (2006) J. Phys. Chem. A 110(22), 7303-7306."},"title":"Volumetric properties: Specific density","constr":[],"dhead":[["Temperature, K",null],["Pressure, kPa",null],["Specific density, kg/m<SUP>3</SUP>","Liquid"]],"components":[{"idout":"ABnWKl","sample":[["Source:","synthesized by others"],["Purification:","fraction melting in an adiabatic calorimeter"],["Purity:","98.6 mol %"]],"formula":"C<SUB>14</SUB>H<SUB>23</SUB>F<SUB>6</SUB>N<SUB>3</SUB>O<SUB>4</SUB>S<SUB>2</SUB>","mw":"475.47","name":"1-octyl-3-methylimidazolium bis[(trifluoromethyl)sulfonyl]imide"}],"solvent":null,"footer":""}